# LAMMPS geometry file

16 atoms
2 atom types

0.0 5.01336 xlo xhi
0.0 5.01336 ylo yhi
0.0 5.01336 zlo zhi

0.0 0.0 0.0 xy xz yz

Masses

1 1.0
2 14.0

Atoms

   1    1   2.1985588944000005e+00  1.7639005824000000e+00  8.8014548159999995e-01
   2    1   1.7639005824000000e+00  8.8014548159999995e-01  2.1985588944000005e+00
   3    1   8.8014548159999995e-01  2.1985588944000005e+00  1.7639005824000000e+00
   4    1   4.8411510839999998e+00  1.6194155472000002e+00  4.9398140088000000e+00
   5    1   4.3563090384000001e+00  2.4998116968000001e+00  3.6324801216000000e+00
   6    1   3.5195792543999995e+00  1.1535741360000000e+00  4.0840334568000003e+00
   7    1   4.0840334568000003e+00  3.5195792543999995e+00  1.1535741360000000e+00
   8    1   4.9398140088000000e+00  4.8411510839999998e+00  1.6194155472000002e+00
   9    1   3.6324801216000000e+00  4.3563090384000001e+00  2.4998116968000001e+00
  10    1   2.4998116968000001e+00  3.6324801216000000e+00  4.3563090384000001e+00
  11    1   1.1535741360000000e+00  4.0840334568000003e+00  3.5195792543999995e+00
  12    1   1.6194155472000002e+00  4.9398140088000000e+00  4.8411510839999998e+00
  13    2   1.3746131783999997e+00  1.3746131783999997e+00  1.3746131783999997e+00
  14    2   3.9981546000000003e+00  1.9910559240000001e+00  4.4636450759999997e+00
  15    2   4.4636450759999997e+00  3.9981546000000003e+00  1.9910559240000001e+00
  16    2   1.9910559240000001e+00  4.4636450759999997e+00  3.9981546000000003e+00
