|===============================================================================
|
|  DFTB+ development version (commit: 63bdaec, base: 18.1)
|
|  Copyright (C) 2018  DFTB+ developers group
|
|===============================================================================
|
|  When publishing results obtained with DFTB+, please cite the following
|  reference:
|
|  * B. Aradi, B. Hourahine and T. Frauenheim,
|    DFTB+, a Sparse Matrix-Based Implementation of the DFTB Method,
|    J. Phys. Chem. A, 111 5678 (2007).  [doi: 10.1021/jp070186p]
|
|  You should also cite additional publications crediting the parametrization
|  data you use. Please consult the documentation of the SK-files for the
|  references.
|
|===============================================================================


***  Parsing and initializing

Parser version: 6

Interpreting input file 'dftb_in.hsd'
--------------------------------------------------------------------------------
***  Converting input from version  5 to version  6 ...
***  Done.

Reading SK-files:
  C-C.skf
  C-H.skf
  H-H.skf
Done.
WARNING!
-> Settings will be read but ignored (compiled without MPI support)
Path: dftb_in/Parallel
Line: 73-81 (File: dftb_in.hsd)

WARNING!
-> Settings will be read but ignored (compiled without SCALAPACK support)
Path: dftb_in/Parallel/Blacs
Line: 78-80 (File: dftb_in.hsd)



Processed input in HSD format written to 'dftb_pin.hsd'

Starting initialization...
--------------------------------------------------------------------------------
OpenMP threads:              4
Chosen random seed:               661418165
Mode:                        Static calculation
Self consistent charges:     Yes
SCC-tolerance:                 0.100000E-09
Max. scc iterations:                    100
Shell resolved Hubbard:      No
Spin polarisation:           No
Nr. of up electrons:            42.000000
Nr. of down electrons:          42.000000
Periodic boundaries:         Yes
Diagonalizer:                Relatively robust
Mixer:                       Broyden mixer
Mixing parameter:                  0.200000
Maximal SCC-cycles:                     100
Nr. of chrg. vec. in memory:              0
Electronic temperature:        0.865016E-03
Initial charges:             Set automatically (system chrg:   0.000E+00)
Included shells:             C:  s, p
                             H:  s
K-points and weights:           1:  0.000000  0.000000  0.000000     1.000000
 
K-points in absolute space:     1:  0.000000  0.000000  0.000000
 
Extra options:
                             Mulliken analysis
Force type                   original

--------------------------------------------------------------------------------

***  Geometry step: 0

 iSCC Total electronic   Diff electronic      SCC error    
    1   -0.37300024E+02    0.00000000E+00    0.15713162E+00
    2   -0.37301841E+02   -0.18170542E-02    0.92367282E-01
    3   -0.37299711E+02    0.21296705E-02    0.69144063E-01
    4   -0.37303224E+02   -0.35126188E-02    0.64438442E-02
    5   -0.37303246E+02   -0.22293820E-04    0.81054660E-03
    6   -0.37303247E+02   -0.38059954E-06    0.35761750E-03
    7   -0.37303247E+02    0.42425583E-07    0.18410650E-03
    8   -0.37303247E+02   -0.78094871E-07    0.10011928E-03
    9   -0.37303247E+02   -0.15381801E-07    0.45040987E-07
   10   -0.37303247E+02    0.00000000E+00    0.20437909E-08
   11   -0.37303247E+02   -0.71054274E-14    0.18227553E-09
   12   -0.37303247E+02    0.71054274E-14    0.79587115E-10
>> Charges saved for restart in charges.bin
 
Total Energy:                      -35.8584342740 H         -975.7576 eV
Extrapolated to 0:                 -35.8584342742 H         -975.7576 eV
Total Mermin free energy:          -35.8584342745 H         -975.7576 eV
Force related energy:              -35.8584342745 H         -975.7576 eV
S inverted
 ham before 5920 -0.492878324693927 0.00000000000000
 0.00000000000000 0.00000000000000 0.00000000000000
 -0.182341714693927 0.00000000000000 0.00000000000000
 0.00000000000000 0.00000000000000 -0.182341714693927
 0.00000000000000 0.00000000000000 0.00000000000000
 0.00000000000000 -0.182341714693927 -0.329315766189667
 0.241695216442485 -0.139542752467408 0.00000000000000
 -0.276679299105336 0.00000000000000 -0.283912472589975
 0.00000000000000 0.00000000000000 -0.118174173697066
 0.00000000000000 0.00000000000000 0.283912472589975
 0.00000000000000 0.250695875037430 0.00000000000000
 0.00000000000000 0.00000000000000 0.00000000000000
 -0.118174173697066 -0.276921082808915 0.246124858493897
 0.142100236586414 0.00000000000000 -0.246124858493897
 0.158668477665558 0.159912603183347 0.00000000000000
 -0.142100236586414 0.159912603183347 -2.598273477542472E-002
 0.00000000000000 0.00000000000000 0.00000000000000
 0.00000000000000 -0.118308308407259 -4.715063195296915E-002
 2.448680305016351E-002 5.099497720706039E-002 0.00000000000000
 -3.020795406270835E-002 2.107724227587345E-002 3.650685020991153E-002
 0.00000000000000 -2.107724227587345E-002 6.502142178292249E-003
 2.722678267711105E-002 0.00000000000000 -3.650685020991153E-002
 2.722678267711105E-002 3.794091539581058E-002 0.00000000000000
 0.00000000000000 0.00000000000000 0.00000000000000
 -9.217249979024573E-003 -3.020795406270835E-002 2.107724227587345E-002
 -3.650685020991153E-002 0.00000000000000 -2.107724227587345E-002
 6.502142178292249E-003 -2.722678267711105E-002 0.00000000000000
 3.650685020991153E-002 -2.722678267711105E-002 3.794091539581058E-002
 0.00000000000000 0.00000000000000 0.00000000000000
 0.00000000000000 -9.217249979024573E-003 -3.023001841131077E-002
 4.219030883356858E-002 0.00000000000000 0.00000000000000
 -4.219030883356858E-002 5.371613732420464E-002 0.00000000000000
 0.00000000000000 0.00000000000000 0.00000000000000
 -9.225244921451251E-003 0.00000000000000 0.00000000000000
 0.00000000000000 0.00000000000000 -9.225244921451251E-003
 -2.333840510869680E-002 1.163866580099185E-002 -2.831743927596484E-002
 0.00000000000000 -1.064374188948883E-002 0.00000000000000
 1.632898971285268E-002 0.00000000000000 0.00000000000000
 -3.029774280771664E-003 0.00000000000000 0.00000000000000
 -1.632898971285268E-002 0.00000000000000 2.335709060854970E-002
 0.00000000000000 0.00000000000000 0.00000000000000
 0.00000000000000 -3.029774280771664E-003 -1.065693529856667E-002
 1.416116492727516E-002 -8.175951420831103E-003 0.00000000000000
 -1.416116492727516E-002 1.678848808389025E-002 -1.144452938702311E-002
 0.00000000000000 8.175951420831103E-003 -1.144452938702311E-002
 3.573480729483336E-003 0.00000000000000 0.00000000000000
 0.00000000000000 0.00000000000000 -3.034020615434572E-003
 -5.293409927579320E-004 3.180931093163932E-004 -9.182556034153783E-004
 0.00000000000000 -3.180931093163932E-004 6.727576311619348E-005
 -5.694779461312865E-004 0.00000000000000 9.182556034153783E-004
 -5.694779461312865E-004 1.513943826666178E-003 0.00000000000000
 0.00000000000000 0.00000000000000 0.00000000000000
 -1.299972073925109E-004 -5.296194864839315E-004 6.365286190175125E-004
 7.349998525943684E-004 0.00000000000000 -6.365286190175125E-004
 6.594256271641194E-004 9.116326710392304E-004 0.00000000000000
 -7.349998525943684E-004 9.116326710392304E-004 9.225910944317189E-004
 0.00000000000000 0.00000000000000 0.00000000000000
 0.00000000000000 -1.300715177667279E-004 -5.297789227345380E-004
 9.550869624928894E-004 1.838065500051938E-004 0.00000000000000
 -9.550869624928894E-004 1.646776444647717E-003 3.419626975506464E-004
 0.00000000000000 -1.838065500051938E-004 3.419626975506464E-004
 -6.430331968685607E-005 0.00000000000000 0.00000000000000
 0.00000000000000 0.00000000000000 -1.301140637715569E-004
 -4.269044580345577E-004 1.818220259633083E-004 7.160602131435334E-004
 0.00000000000000 -7.096717389509690E-005 0.00000000000000
 1.620273045540812E-004 0.00000000000000 0.00000000000000
 -1.851025637884338E-005 0.00000000000000 0.00000000000000
 -1.620273045540812E-004 0.00000000000000 2.950960504408325E-004
 0.00000000000000 0.00000000000000 0.00000000000000
 0.00000000000000 -1.851025637884338E-005 -7.096717389509723E-005
 0.00000000000000 -1.620273045540818E-004 0.00000000000000
 0.00000000000000 -1.851025637884345E-005 0.00000000000000
 0.00000000000000 1.620273045540818E-004 0.00000000000000
 2.950960504408335E-004 0.00000000000000 0.00000000000000
 0.00000000000000 0.00000000000000 -1.851025637884345E-005
 -7.102954872084590E-005 1.405891842528747E-004 8.116919382330427E-005
 0.00000000000000 -1.405891842528747E-004 2.170713663195106E-004
 1.360344858906716E-004 0.00000000000000 -8.116919382330427E-005
 1.360344858906716E-004 5.999223526003794E-005 0.00000000000000
 0.00000000000000 0.00000000000000 0.00000000000000
 -1.854730254717212E-005 -7.102954872084590E-005 1.405891842528747E-004
 -8.116919382330427E-005 0.00000000000000 -1.405891842528747E-004
 2.170713663195106E-004 -1.360344858906716E-004 0.00000000000000
 8.116919382330427E-005 -1.360344858906716E-004 5.999223526003794E-005
 0.00000000000000 0.00000000000000 0.00000000000000
 0.00000000000000 -1.854730254717212E-005 1.325654105448852E-005
 5.002640945510249E-006 -2.547819052850959E-005 0.00000000000000
 1.441106777755835E-005 7.838008747620279E-006 0.00000000000000
 0.00000000000000 -7.838008747620279E-006 3.848882921392802E-005
 0.00000000000000 0.00000000000000 0.00000000000000
 0.00000000000000 -9.397891856833861E-008 0.00000000000000
 0.00000000000000 0.00000000000000 0.00000000000000
 -9.397891856833861E-008 1.438458430335470E-005 3.921660042818385E-006
 6.792513644977451E-006 0.00000000000000 -3.921660042818385E-006
 9.540808928491113E-006 1.669166293086280E-005 0.00000000000000
 -6.792513644977451E-006 1.669166293086280E-005 2.881467656573535E-005
 0.00000000000000 0.00000000000000 0.00000000000000
 0.00000000000000 -9.612829173213271E-008 1.438458430335467E-005
 3.921660042818420E-006 -6.792513644977510E-006 0.00000000000000
 -3.921660042818420E-006 9.540808928491130E-006 -1.669166293086284E-005
 0.00000000000000 6.792513644977510E-006 -1.669166293086284E-005
 2.881467656573541E-005 0.00000000000000 0.00000000000000
 0.00000000000000 0.00000000000000 -9.612829173214007E-008
 1.750289791812595E-005 -3.884182161667000E-006 1.121266904190463E-006
 0.00000000000000 3.884182161667000E-006 2.095464524688724E-005
 -5.735609900529228E-006 0.00000000000000 -1.121266904190463E-006
 -5.735609900529228E-006 2.741639527257351E-006 0.00000000000000
 0.00000000000000 0.00000000000000 0.00000000000000
 1.085911425656039E-006 1.743398370880265E-005 -9.604811930003035E-007
 -3.881738070592744E-006 0.00000000000000 9.604811930003035E-007
 2.316828685287313E-006 5.008668133828761E-006 0.00000000000000
 3.881738070592744E-006 5.008668133828761E-006 2.131979347007754E-005
 0.00000000000000 0.00000000000000 0.00000000000000
 0.00000000000000 1.077504584321417E-006 1.750154920012467E-005
 -2.912538594722834E-006 2.802591239732085E-006 0.00000000000000
 2.912538594722834E-006 1.226145212489663E-005 -1.075382360682364E-005
 0.00000000000000 -2.802591239732085E-006 -1.075382360682364E-005
 1.143361986523721E-005 0.00000000000000 0.00000000000000
 0.00000000000000 0.00000000000000 1.085749492389463E-006
 1.371124480641355E-006 -1.207031179114482E-006 -6.968798357727948E-007
 0.00000000000000 1.207031179114482E-006 3.449460588827066E-007
 9.659198970349069E-008 0.00000000000000 6.968798357727948E-007
 9.659198970349069E-008 2.334112554438350E-007 0.00000000000000
 0.00000000000000 0.00000000000000 0.00000000000000
 1.776438394182447E-007 1.364138167912710E-006 0.00000000000000
 1.383742785391169E-006 0.00000000000000 0.00000000000000
 1.762928360150326E-007 0.00000000000000 0.00000000000000
 -1.383742785391169E-006 0.00000000000000 4.029583984038465E-007
 0.00000000000000 0.00000000000000 0.00000000000000
 0.00000000000000 1.762928360150326E-007 -0.494662279864415
 0.00000000000000 0.00000000000000 0.00000000000000
 0.00000000000000 -0.184125669864415 0.00000000000000
 0.00000000000000 0.00000000000000 0.00000000000000
 -0.184125669864415 0.00000000000000 0.00000000000000
 0.00000000000000 0.00000000000000 -0.184125669864415
 -0.277162981269100 0.00000000000000 0.284488617916300
 0.00000000000000 0.00000000000000 -0.118442508593124
 0.00000000000000 0.00000000000000 -0.284488617916300
 0.00000000000000 0.251292289249294 0.00000000000000
 0.00000000000000 0.00000000000000 0.00000000000000
 -0.118442508593124 -0.277418327209844 0.246637805548907
 -0.142396386671859 0.00000000000000 -0.246637805548907
 0.159059366107571 -0.160297549878943 0.00000000000000
 0.142396386671859 -0.160297549878943 -2.603634459466268E-002
 0.00000000000000 0.00000000000000 0.00000000000000
 0.00000000000000 -0.118584167278673 -4.719264289073124E-002
 5.646918696556207E-002 4.296082215802076E-003 0.00000000000000
 -3.025094405663297E-002 2.111213967077373E-002 -3.656729426381883E-002
 0.00000000000000 -2.111213967077373E-002 6.517645079216408E-003
 -2.728061320810193E-002 0.00000000000000 3.656729426381883E-002
 -2.728061320810193E-002 3.801857642522420E-002 0.00000000000000
 0.00000000000000 0.00000000000000 0.00000000000000
 -9.232826153315376E-003 -3.025094405663293E-002 2.111213967077371E-002
 3.656729426381879E-002 0.00000000000000 -2.111213967077371E-002
 6.517645079216406E-003 2.728061320810190E-002 0.00000000000000
 -3.656729426381879E-002 2.728061320810190E-002 3.801857642522417E-002
 0.00000000000000 0.00000000000000 0.00000000000000
 0.00000000000000 -9.232826153315363E-003 -3.020795406270835E-002
 -2.107724227587345E-002 3.650685020991153E-002 0.00000000000000
 2.107724227587345E-002 6.502142178292249E-003 -2.722678267711105E-002
 0.00000000000000 -3.650685020991153E-002 -2.722678267711105E-002
 3.794091539581058E-002 0.00000000000000 0.00000000000000
 0.00000000000000 0.00000000000000 -9.217249979024573E-003
 -3.020795406270835E-002 -2.107724227587345E-002 -3.650685020991151E-002
 0.00000000000000 2.107724227587345E-002 6.502142178292277E-003
 2.722678267711104E-002 0.00000000000000 3.650685020991151E-002
 2.722678267711104E-002 3.794091539581055E-002 0.00000000000000
 0.00000000000000 0.00000000000000 0.00000000000000
 -9.217249979024573E-003 -3.026359225542494E-002 4.224481638468940E-002
 0.00000000000000 0.00000000000000 -4.224481638468940E-002
 5.380105996208343E-002 0.00000000000000 0.00000000000000
 0.00000000000000 0.00000000000000 -9.237409426790848E-003
 0.00000000000000 0.00000000000000 0.00000000000000
 0.00000000000000 -9.237409426790848E-003 -1.379554756612124E-002
 1.548969549260006E-002 -1.129983874819855E-002 0.00000000000000
 -1.065658298380743E-002 0.00000000000000 -1.635128991566362E-002
 0.00000000000000 0.00000000000000 -3.033907067469326E-003
 0.00000000000000 0.00000000000000 1.635128991566362E-002
 0.00000000000000 2.339494202332616E-002 0.00000000000000
 0.00000000000000 0.00000000000000 0.00000000000000
 -3.033907067469326E-003 -1.066724498755965E-002 1.417667032822717E-002
 8.184903467191347E-003 0.00000000000000 -1.417667032822717E-002
 1.681045080270826E-002 1.145912525969280E-002 0.00000000000000
 -8.184903467191347E-003 1.145912525969280E-002 3.578589582305526E-003
 0.00000000000000 0.00000000000000 0.00000000000000
 0.00000000000000 -3.037338692635780E-003 -1.541311116636549E-003
 1.599287625582497E-003 1.968369049855474E-003 0.00000000000000
 -5.300535548299646E-004 9.555931808970912E-004 -1.839040215892393E-004
 0.00000000000000 -9.555931808970912E-004 1.647602091813848E-003
 -3.421357836982620E-004 0.00000000000000 1.839040215892393E-004
 -3.421357836982620E-004 -6.434324476471963E-005 0.00000000000000
 0.00000000000000 0.00000000000000 0.00000000000000
 -1.301873171267978E-004 -5.298837243415880E-004 3.184267459692995E-004
 9.192187293588928E-004 0.00000000000000 -3.184267459692995E-004
 6.732841625533012E-005 5.700479738894491E-004 0.00000000000000
 -9.192187293588928E-004 5.700479738894491E-004 1.515444544578801E-003
 0.00000000000000 0.00000000000000 0.00000000000000
 0.00000000000000 -1.301420176843803E-004 -5.300433429723219E-004
 6.370497387235120E-004 -7.356015897286459E-004 0.00000000000000
 -6.370497387235120E-004 6.599293859766035E-004 -9.123449493105290E-004
 0.00000000000000 7.356015897286459E-004 -9.123449493105290E-004
 9.233004701006893E-004 0.00000000000000 0.00000000000000
 0.00000000000000 0.00000000000000 -1.301846101043304E-004
 -7.105409819628497E-005 1.406942713397550E-004 8.122988787862132E-005
 0.00000000000000 -1.406942713397550E-004 2.172184081470286E-004
 1.361277629758334E-004 0.00000000000000 -8.122988787862132E-005
 1.361277629758334E-004 6.003165512317708E-005 0.00000000000000
 0.00000000000000 0.00000000000000 0.00000000000000
 -1.856175751827993E-005 -7.105409819628497E-005 1.406942713397550E-004
 -8.122988787862130E-005 0.00000000000000 -1.406942713397550E-004
 2.172184081470286E-004 -1.361277629758334E-004 0.00000000000000
 8.122988787862130E-005 -1.361277629758334E-004 6.003165512317704E-005
 0.00000000000000 0.00000000000000 0.00000000000000
 0.00000000000000 -1.856175751827993E-005 -7.101413439738165E-005
 0.00000000000000 -1.622612189708933E-004 0.00000000000000
 0.00000000000000 -1.853811246652139E-005 0.00000000000000
 0.00000000000000 1.622612189708933E-004 0.00000000000000
 2.954831914082431E-004 0.00000000000000 0.00000000000000
 0.00000000000000 0.00000000000000 -1.853811246652139E-005
 -7.101413439738132E-005 0.00000000000000 1.622612189708927E-004
 0.00000000000000 0.00000000000000 -1.853811246652132E-005
 0.00000000000000 0.00000000000000 -1.622612189708927E-004
 0.00000000000000 2.954831914082421E-004 0.00000000000000
 0.00000000000000 0.00000000000000 0.00000000000000
 -1.853811246652132E-005 -8.306721380035261E-006 2.729763305135855E-005
 -5.143439490577869E-005 0.00000000000000 1.445242131155325E-005
 7.829931637767863E-006 0.00000000000000 0.00000000000000
 -7.829931637767863E-006 3.854737353564994E-005 0.00000000000000
 0.00000000000000 0.00000000000000 0.00000000000000
 -9.064008083177714E-008 0.00000000000000 0.00000000000000
 0.00000000000000 0.00000000000000 -9.064008083177714E-008
 1.445117567142696E-005 3.914934330371500E-006 6.780864370672976E-006
 0.00000000000000 -3.914934330371500E-006 9.568212998890754E-006
 1.672975361818549E-005 0.00000000000000 -6.780864370672976E-006
 1.672975361818549E-005 2.888606396294367E-005 0.00000000000000
 0.00000000000000 0.00000000000000 0.00000000000000
 -9.071589249938062E-008 1.445117567142696E-005 3.914934330371500E-006
 -6.780864370672975E-006 0.00000000000000 -3.914934330371500E-006
 9.568212998890759E-006 -1.672975361818549E-005 0.00000000000000
 6.780864370672975E-006 -1.672975361818549E-005 2.888606396294366E-005
 0.00000000000000 0.00000000000000 0.00000000000000
 0.00000000000000 -9.071589249938062E-008 1.505068769782120E-005
 1.013543687836812E-005 2.063943696221138E-005 0.00000000000000
 1.754353305081096E-005 -3.908950098628943E-006 -1.128417709377414E-006
 0.00000000000000 3.908950098628943E-006 2.098314433970614E-005
 5.742414362071005E-006 0.00000000000000 1.128417709377414E-006
 5.742414362071005E-006 2.748549068088676E-006 0.00000000000000
 0.00000000000000 0.00000000000000 0.00000000000000
 1.090855340297953E-006 1.754355483203262E-005 -2.931842321374486E-006
 -2.821167021410357E-006 0.00000000000000 2.931842321374486E-006
 1.228014977309872E-005 1.076688911567783E-005 0.00000000000000
 2.821167021410357E-006 1.076688911567783E-005 1.145131756467837E-005
 0.00000000000000 0.00000000000000 0.00000000000000
 0.00000000000000 1.090872094987446E-006 1.751757757098658E-005
 -9.733015535478739E-007 3.933550934789253E-006 0.00000000000000
 9.733015535478739E-007 2.330024701920906E-006 -5.020778154342871E-006
 0.00000000000000 -3.933550934789253E-006 -5.020778154342871E-006
 2.137893509285306E-005 0.00000000000000 0.00000000000000
 0.00000000000000 0.00000000000000 1.087704147629423E-006
 1.373809822258675E-006 -1.210330024855654E-006 6.987849932990255E-007
 0.00000000000000 1.210330024855654E-006 3.444714740939610E-007
 -9.602177847897825E-008 0.00000000000000 -6.987849932990255E-007
 -9.602177847897825E-008 2.335952739639090E-007 0.00000000000000
 0.00000000000000 0.00000000000000 0.00000000000000
 1.781570245170315E-007 1.369315117146993E-006 0.00000000000000
 -1.391168670562395E-006 0.00000000000000 0.00000000000000
 1.772944430531512E-007 0.00000000000000 0.00000000000000
 1.391168670562395E-006 0.00000000000000 4.012900762988388E-007
 0.00000000000000 0.00000000000000 0.00000000000000
 0.00000000000000 1.772944430531512E-007 -0.492878324693927
 0.00000000000000 0.00000000000000 0.00000000000000
 0.00000000000000 -0.182341714693927 0.00000000000000
 0.00000000000000 0.00000000000000 0.00000000000000
 -0.182341714693927 0.00000000000000 0.00000000000000
 0.00000000000000 0.00000000000000 -0.182341714693927
 -0.329315766189667 0.241695216442485 0.139542752467408
 0.00000000000000 -0.276921082808915 0.246124858493897
 -0.142100236586414 0.00000000000000 -0.246124858493897
 0.158668477665558 -0.159912603183347 0.00000000000000
 0.142100236586414 -0.159912603183347 -2.598273477542471E-002
 0.00000000000000 0.00000000000000 0.00000000000000
 0.00000000000000 -0.118308308407259 -4.715063195296915E-002
 2.448680305016350E-002 -5.099497720706039E-002 0.00000000000000
 -3.023001841131077E-002 4.219030883356858E-002 0.00000000000000
 0.00000000000000 -4.219030883356858E-002 5.371613732420464E-002
 0.00000000000000 0.00000000000000 0.00000000000000
 0.00000000000000 -9.225244921451251E-003 0.00000000000000
 0.00000000000000 0.00000000000000 0.00000000000000
 -9.225244921451251E-003 -2.333840510869682E-002 1.163866580099186E-002
 2.831743927596487E-002 0.00000000000000 -1.065693529856667E-002
 1.416116492727516E-002 8.175951420831103E-003 0.00000000000000
 -1.416116492727516E-002 1.678848808389025E-002 1.144452938702311E-002
 0.00000000000000 -8.175951420831103E-003 1.144452938702311E-002
 3.573480729483336E-003 0.00000000000000 0.00000000000000
 0.00000000000000 0.00000000000000 -3.034020615434572E-003
 -5.293409927579320E-004 3.180931093163932E-004 9.182556034153784E-004
 0.00000000000000 -3.180931093163932E-004 6.727576311619348E-005
 5.694779461312865E-004 0.00000000000000 -9.182556034153784E-004
 5.694779461312865E-004 1.513943826666178E-003 0.00000000000000
 0.00000000000000 0.00000000000000 0.00000000000000
 -1.299972073925109E-004 -5.296194864839307E-004 6.365286190175112E-004
 -7.349998525943669E-004 0.00000000000000 -6.365286190175112E-004
 6.594256271641184E-004 -9.116326710392290E-004 0.00000000000000
 7.349998525943669E-004 -9.116326710392290E-004 9.225910944317175E-004
 0.00000000000000 0.00000000000000 0.00000000000000
 0.00000000000000 -1.300715177667277E-004 -5.297789227345380E-004
 9.550869624928894E-004 -1.838065500051938E-004 0.00000000000000
 -9.550869624928894E-004 1.646776444647716E-003 -3.419626975506465E-004
 0.00000000000000 1.838065500051938E-004 -3.419626975506465E-004
 -6.430331968685602E-005 0.00000000000000 0.00000000000000
 0.00000000000000 0.00000000000000 -1.301140637715569E-004
 -4.269044580345571E-004 1.818220259633080E-004 -7.160602131435325E-004
 0.00000000000000 -7.096717389509723E-005 0.00000000000000
 1.620273045540818E-004 0.00000000000000 0.00000000000000
 -1.851025637884345E-005 0.00000000000000 0.00000000000000
 -1.620273045540818E-004 0.00000000000000 2.950960504408335E-004
 0.00000000000000 0.00000000000000 0.00000000000000
 0.00000000000000 -1.851025637884345E-005 -7.096717389509723E-005
 0.00000000000000 -1.620273045540818E-004 0.00000000000000
 0.00000000000000 -1.851025637884345E-005 0.00000000000000
 0.00000000000000 1.620273045540818E-004 0.00000000000000
 2.950960504408335E-004 0.00000000000000 0.00000000000000
 0.00000000000000 0.00000000000000 -1.851025637884345E-005
 -7.102954872084590E-005 1.405891842528747E-004 8.116919382330426E-005
 0.00000000000000 -1.405891842528747E-004 2.170713663195106E-004
 1.360344858906716E-004 0.00000000000000 -8.116919382330426E-005
 1.360344858906716E-004 5.999223526003792E-005 0.00000000000000
 0.00000000000000 0.00000000000000 0.00000000000000
 -1.854730254717212E-005 -7.102954872084590E-005 1.405891842528747E-004
 -8.116919382330430E-005 0.00000000000000 -1.405891842528747E-004
 2.170713663195106E-004 -1.360344858906716E-004 0.00000000000000
 8.116919382330430E-005 -1.360344858906716E-004 5.999223526003798E-005
 0.00000000000000 0.00000000000000 0.00000000000000
 0.00000000000000 -1.854730254717212E-005 1.325654105448853E-005
 5.002640945510250E-006 2.547819052850959E-005 0.00000000000000
 1.441106777755835E-005 7.838008747620279E-006 0.00000000000000
 0.00000000000000 -7.838008747620279E-006 3.848882921392802E-005
 0.00000000000000 0.00000000000000 0.00000000000000
 0.00000000000000 -9.397891856833866E-008 0.00000000000000
 0.00000000000000 0.00000000000000 0.00000000000000
 -9.397891856833866E-008 1.438458430335467E-005 3.921660042818420E-006
 6.792513644977510E-006 0.00000000000000 -3.921660042818420E-006
 9.540808928491130E-006 1.669166293086284E-005 0.00000000000000
 -6.792513644977510E-006 1.669166293086284E-005 2.881467656573541E-005
 0.00000000000000 0.00000000000000 0.00000000000000
 0.00000000000000 -9.612829173214012E-008 1.438458430335467E-005
 3.921660042818420E-006 -6.792513644977510E-006 0.00000000000000
 -3.921660042818420E-006 9.540808928491130E-006 -1.669166293086284E-005
 0.00000000000000 6.792513644977510E-006 -1.669166293086284E-005
 2.881467656573541E-005 0.00000000000000 0.00000000000000
 0.00000000000000 0.00000000000000 -9.612829173214012E-008
 1.750289791812596E-005 -3.884182161667001E-006 -1.121266904190464E-006
 0.00000000000000 3.884182161667001E-006 2.095464524688724E-005
 5.735609900529229E-006 0.00000000000000 1.121266904190464E-006
 5.735609900529229E-006 2.741639527257351E-006 0.00000000000000
 0.00000000000000 0.00000000000000 0.00000000000000
 1.085911425656040E-006 1.743398370880265E-005 -9.604811930002939E-007
 3.881738070592705E-006 0.00000000000000 9.604811930002939E-007
 2.316828685287313E-006 -5.008668133828777E-006 0.00000000000000
 -3.881738070592705E-006 -5.008668133828777E-006 2.131979347007759E-005
 0.00000000000000 0.00000000000000 0.00000000000000
 0.00000000000000 1.077504584321414E-006 1.750154920012467E-005
 -2.912538594722834E-006 -2.802591239732085E-006 0.00000000000000
 2.912538594722834E-006 1.226145212489663E-005 1.075382360682364E-005
 0.00000000000000 2.802591239732085E-006 1.075382360682364E-005
 1.143361986523721E-005 0.00000000000000 0.00000000000000
 0.00000000000000 0.00000000000000 1.085749492389463E-006
 1.371124480641355E-006 -1.207031179114482E-006 6.968798357727949E-007
 0.00000000000000 1.207031179114482E-006 3.449460588827066E-007
 -9.659198970349066E-008 0.00000000000000 -6.968798357727949E-007
 -9.659198970349066E-008 2.334112554438350E-007 0.00000000000000
 0.00000000000000 0.00000000000000 0.00000000000000
 1.776438394182447E-007 -0.496546278487214 0.00000000000000
 0.00000000000000 0.00000000000000 0.00000000000000
 -0.186009668487214 0.00000000000000 0.00000000000000
 0.00000000000000 0.00000000000000 -0.186009668487214
 0.00000000000000 0.00000000000000 0.00000000000000
 0.00000000000000 -0.186009668487214 -0.277673788124271
 0.00000000000000 -0.285097073229125 0.00000000000000
 0.00000000000000 -0.118725891596792 0.00000000000000
 0.00000000000000 0.285097073229125 0.00000000000000
 0.251922150118197 0.00000000000000 0.00000000000000
 0.00000000000000 0.00000000000000 -0.118725891596792
 -0.277820222163493 0.247052392083240 0.142635748290896
 0.00000000000000 -0.247052392083240 0.159375299463464
 0.160608680852152 0.00000000000000 -0.142635748290896
 0.160608680852152 -2.607967442558191E-002 0.00000000000000
 0.00000000000000 0.00000000000000 0.00000000000000
 -0.118807128639592 -3.028644684822030E-002 4.228189225189134E-002
 0.00000000000000 0.00000000000000 -4.228189225189134E-002
 5.385877877266936E-002 0.00000000000000 0.00000000000000
 0.00000000000000 0.00000000000000 -9.245687517884797E-003
 0.00000000000000 0.00000000000000 0.00000000000000
 0.00000000000000 -9.245687517884797E-003 -3.025094405663293E-002
 -2.111213967077371E-002 3.656729426381879E-002 0.00000000000000
 2.111213967077371E-002 6.517645079216407E-003 -2.728061320810190E-002
 0.00000000000000 -3.656729426381879E-002 -2.728061320810190E-002
 3.801857642522417E-002 0.00000000000000 0.00000000000000
 0.00000000000000 0.00000000000000 -9.232826153315365E-003
 -3.028569047425660E-002 2.114034529134929E-002 -3.661614782596662E-002
 0.00000000000000 -2.114034529134929E-002 6.530175210549626E-003
 -2.732412142803779E-002 0.00000000000000 3.661614782596662E-002
 -2.732412142803779E-002 3.808134550971911E-002 0.00000000000000
 0.00000000000000 0.00000000000000 0.00000000000000
 -9.245415507429633E-003 -3.025094405663293E-002 -2.111213967077371E-002
 -3.656729426381879E-002 0.00000000000000 2.111213967077371E-002
 6.517645079216407E-003 2.728061320810190E-002 0.00000000000000
 3.656729426381879E-002 2.728061320810190E-002 3.801857642522417E-002
 0.00000000000000 0.00000000000000 0.00000000000000
 0.00000000000000 -9.232826153315365E-003 -3.028569047425660E-002
 2.114034529134929E-002 3.661614782596662E-002 0.00000000000000
 -2.114034529134929E-002 6.530175210549626E-003 2.732412142803779E-002
 0.00000000000000 -3.661614782596662E-002 2.732412142803779E-002
 3.808134550971911E-002 0.00000000000000 0.00000000000000
 0.00000000000000 0.00000000000000 -9.245415507429633E-003
 -1.067426588355374E-002 1.418722049375598E-002 -8.190997935701006E-003
 0.00000000000000 -1.418722049375598E-002 1.682538045987330E-002
 -1.146905383112170E-002 0.00000000000000 8.190997935701006E-003
 -1.146905383112170E-002 3.582065472545404E-003 0.00000000000000
 0.00000000000000 0.00000000000000 0.00000000000000
 -3.039597755745675E-003 -1.067014420127056E-002 0.00000000000000
 1.637484070442724E-002 0.00000000000000 0.00000000000000
 -3.038271619099052E-003 0.00000000000000 0.00000000000000
 -1.637484070442724E-002 0.00000000000000 2.343491612945255E-002
 0.00000000000000 0.00000000000000 0.00000000000000
 0.00000000000000 -3.038271619099052E-003 -1.542249387473859E-003
 2.505826768938189E-003 -4.010830019269812E-004 0.00000000000000
 -5.303398592361486E-004 9.561201435662164E-004 1.840056350006819E-004
 0.00000000000000 -9.561201435662164E-004 1.648461774554596E-003
 3.423162841793766E-004 0.00000000000000 -1.840056350006819E-004
 3.423162841793766E-004 -6.438473379385693E-005 0.00000000000000
 0.00000000000000 0.00000000000000 0.00000000000000
 -1.302636148794094E-004 -5.303321485892513E-004 6.374045574846075E-004
 7.360115981647945E-004 0.00000000000000 -6.374045574846075E-004
 6.602721810709887E-004 9.128301072766147E-004 0.00000000000000
 -7.360115981647945E-004 9.128301072766147E-004 9.237840676448090E-004
 0.00000000000000 0.00000000000000 0.00000000000000
 0.00000000000000 -1.302616529583521E-004 -5.303223840514830E-004
 3.186964058928816E-004 -9.199971704146501E-004 0.00000000000000
 -3.186964058928816E-004 6.737097285500904E-005 -5.705086955768502E-004
 0.00000000000000 9.199971704146501E-004 -5.705086955768502E-004
 1.516657491280281E-003 0.00000000000000 0.00000000000000
 0.00000000000000 0.00000000000000 -1.302590597776252E-004
 -3.062712471636773E-004 4.655661059646926E-004 2.687946692839440E-004
 0.00000000000000 -1.633006889025958E-004 2.487623006669799E-004
 -1.677951204233418E-004 0.00000000000000 -7.108004756855251E-005
 1.408029537565744E-004 -8.129272379718191E-005 0.00000000000000
 -1.408029537565744E-004 2.173705723934084E-004 -1.362244015284534E-004
 0.00000000000000 8.129272379718191E-005 -1.362244015284534E-004
 6.007257170264557E-005 0.00000000000000 0.00000000000000
 0.00000000000000 0.00000000000000 -1.857672046372634E-005
 -7.108004756855251E-005 1.408029537565744E-004 8.129272379718191E-005
 0.00000000000000 -1.408029537565744E-004 2.173705723934084E-004
 1.362244015284534E-004 0.00000000000000 -8.129272379718191E-005
 1.362244015284534E-004 6.007257170264557E-005 0.00000000000000
 0.00000000000000 0.00000000000000 0.00000000000000
 -1.857672046372634E-005 -7.106372842479521E-005 0.00000000000000
 -1.625082512093799E-004 0.00000000000000 0.00000000000000
 -1.856753071182820E-005 0.00000000000000 0.00000000000000
 1.625082512093799E-004 0.00000000000000 2.958920430775532E-004
 0.00000000000000 0.00000000000000 0.00000000000000
 0.00000000000000 -1.856753071182820E-005 -7.106372842479488E-005
 0.00000000000000 1.625082512093794E-004 0.00000000000000
 0.00000000000000 -1.856753071182813E-005 0.00000000000000
 0.00000000000000 -1.625082512093794E-004 0.00000000000000
 2.958920430775522E-004 0.00000000000000 0.00000000000000
 0.00000000000000 0.00000000000000 -1.856753071182813E-005
 1.449633719638104E-005 3.910389126970702E-006 6.772994600507178E-006
 0.00000000000000 -3.910389126970702E-006 9.586807523843971E-006
 1.675561420277559E-005 0.00000000000000 -6.772994600507178E-006
 1.675561420277559E-005 2.893453543526946E-005 0.00000000000000
 0.00000000000000 0.00000000000000 0.00000000000000
 -8.704805391527014E-008 1.449633719638101E-005 3.910389126970738E-006
 -6.772994600507238E-006 0.00000000000000 -3.910389126970738E-006
 9.586807523843988E-006 -1.675561420277563E-005 0.00000000000000
 6.772994600507238E-006 -1.675561420277563E-005 2.893453543526953E-005
 0.00000000000000 0.00000000000000 0.00000000000000
 0.00000000000000 -8.704805391527754E-008 1.449509167520671E-005
 7.820690267669352E-006 0.00000000000000 0.00000000000000
 -7.820690267669352E-006 3.860595848056490E-005 0.00000000000000
 0.00000000000000 0.00000000000000 0.00000000000000
 -8.712175159801148E-008 0.00000000000000 0.00000000000000
 0.00000000000000 0.00000000000000 -8.712175159801148E-008
 1.944678494630258E-005 9.797692753367523E-006 1.069721807418686E-005
 0.00000000000000 1.758647427084428E-005 -2.951497698106042E-006
 2.840083496815488E-006 0.00000000000000 2.951497698106042E-006
 1.229931707036794E-005 -1.078031568835813E-005 0.00000000000000
 -2.840083496815488E-006 -1.078031568835813E-005 1.146947466777833E-005
 0.00000000000000 0.00000000000000 0.00000000000000
 0.00000000000000 1.096098230245020E-006 1.758514183376167E-005
 -9.836635369073979E-007 -3.975428387035729E-006 0.00000000000000
 9.836635369073979E-007 2.340690307171373E-006 5.030566009417994E-006
 0.00000000000000 3.975428387035729E-006 5.030566009417994E-006
 2.142673597246016E-005 0.00000000000000 0.00000000000000
 0.00000000000000 0.00000000000000 1.095947886553905E-006
 1.758515573177938E-005 -3.934844336027451E-006 1.135890661552757E-006
 0.00000000000000 3.934844336027451E-006 2.101156370848797E-005
 -5.749132604705442E-006 0.00000000000000 -1.135890661552757E-006
 -5.749132604705442E-006 2.755595723166301E-006 0.00000000000000
 0.00000000000000 0.00000000000000 0.00000000000000
 1.095965638712604E-006 1.374782387507276E-006 0.00000000000000
 1.399010996236879E-006 0.00000000000000 0.00000000000000
 1.783522197908277E-007 0.00000000000000 0.00000000000000
 -1.399010996236879E-006 0.00000000000000 3.995281953949832E-007
 0.00000000000000 0.00000000000000 0.00000000000000
 0.00000000000000 1.783522197908277E-007 1.376238549339206E-006
 -1.213430309616305E-006 -7.005736641311527E-007 0.00000000000000
 1.213430309616305E-006 3.439016712901644E-007 9.541307131402295E-008
 0.00000000000000 7.005736641311527E-007 9.541307131402295E-008
 2.337279414787709E-007 0.00000000000000 0.00000000000000
 0.00000000000000 0.00000000000000 1.786412303205433E-007
 -0.497626882617082 0.00000000000000 0.00000000000000
 0.00000000000000 0.00000000000000 -0.187090272617082
 0.00000000000000 0.00000000000000 0.00000000000000
 0.00000000000000 -0.187090272617082 0.00000000000000
 0.00000000000000 0.00000000000000 0.00000000000000
 -0.187090272617082 -0.277975153121029 0.247212037333077
 -0.142728035499828 0.00000000000000 -0.247212037333077
 0.159496769691309 -0.160728570420570 0.00000000000000
 0.142728035499828 -0.160728570420570 -2.609633912446873E-002
 0.00000000000000 0.00000000000000 0.00000000000000
 0.00000000000000 -0.118893087018727 -0.277966771351850
 0.00000000000000 0.285446064632793 0.00000000000000
 0.00000000000000 -0.118888431441775 0.00000000000000
 0.00000000000000 -0.285446064632793 0.00000000000000
 0.252283419095755 0.00000000000000 0.00000000000000
 0.00000000000000 0.00000000000000 -0.118888431441775
 -3.029942203976134E-002 4.230284222616715E-002 0.00000000000000
 0.00000000000000 -4.230284222616715E-002 5.389123752493176E-002
 0.00000000000000 0.00000000000000 0.00000000000000
 0.00000000000000 -9.250378286453637E-003 0.00000000000000
 0.00000000000000 0.00000000000000 0.00000000000000
 -9.250378286453637E-003 -3.029908992289213E-002 2.115120227249554E-002
 -3.663498243912802E-002 0.00000000000000 -2.115120227249554E-002
 6.534977723975068E-003 -2.734086852200541E-002 0.00000000000000
 3.663498243912802E-002 -2.734086852200541E-002 3.810553721031405E-002
 0.00000000000000 0.00000000000000 0.00000000000000
 0.00000000000000 -9.250269106032894E-003 -3.029908992289209E-002
 2.115120227249552E-002 3.663498243912799E-002 0.00000000000000
 -2.115120227249552E-002 6.534977723975051E-003 2.734086852200538E-002
 0.00000000000000 -3.663498243912799E-002 2.734086852200538E-002
 3.810553721031402E-002 0.00000000000000 0.00000000000000
 0.00000000000000 0.00000000000000 -9.250269106032882E-003
 -3.028569047425664E-002 -2.114034529134932E-002 -3.661614782596666E-002
 0.00000000000000 2.114034529134932E-002 6.530175210549629E-003
 2.732412142803782E-002 0.00000000000000 3.661614782596666E-002
 2.732412142803782E-002 3.808134550971914E-002 0.00000000000000
 0.00000000000000 0.00000000000000 0.00000000000000
 -9.245415507429645E-003 -3.028569047425660E-002 -2.114034529134929E-002
 3.661614782596662E-002 0.00000000000000 2.114034529134929E-002
 6.530175210549626E-003 -2.732412142803779E-002 0.00000000000000
 -3.661614782596662E-002 -2.732412142803779E-002 3.808134550971911E-002
 0.00000000000000 0.00000000000000 0.00000000000000
 0.00000000000000 -9.245415507429633E-003 -1.067826152464906E-002
 1.419319375041130E-002 8.194459916939933E-003 0.00000000000000
 -1.419319375041130E-002 1.683378454753992E-002 1.147466577293092E-002
 0.00000000000000 -8.194459916939933E-003 1.147466577293092E-002
 3.584032522999552E-003 0.00000000000000 0.00000000000000
 0.00000000000000 0.00000000000000 -3.040881530177533E-003
 -1.067792250185918E-002 0.00000000000000 -1.638834871833534E-002
 0.00000000000000 0.00000000000000 -3.040774992752850E-003
 0.00000000000000 0.00000000000000 1.638834871833534E-002
 0.00000000000000 2.345784405713000E-002 0.00000000000000
 0.00000000000000 0.00000000000000 0.00000000000000
 -3.040774992752850E-003 -1.066724498755965E-002 -1.417667032822717E-002
 8.184903467191347E-003 0.00000000000000 1.417667032822717E-002
 1.681045080270826E-002 -1.145912525969280E-002 0.00000000000000
 -8.184903467191347E-003 -1.145912525969280E-002 3.578589582305527E-003
 0.00000000000000 0.00000000000000 0.00000000000000
 0.00000000000000 -3.037338692635780E-003 -5.304970565169086E-004
 6.376062680204855E-004 -7.362457101569713E-004 0.00000000000000
 -6.376062680204855E-004 6.604663595034865E-004 -9.131065447876008E-004
 0.00000000000000 7.362457101569713E-004 -9.131065447876008E-004
 9.240610458813671E-004 0.00000000000000 0.00000000000000
 0.00000000000000 0.00000000000000 -1.303055910766724E-004
 -5.304916844340126E-004 3.188002216839272E-004 9.202976086587262E-004
 0.00000000000000 -3.188002216839272E-004 6.738710561583484E-005
 5.706861093823179E-004 0.00000000000000 -9.202976086587262E-004
 5.706861093823179E-004 1.517125815058376E-003 0.00000000000000
 0.00000000000000 0.00000000000000 0.00000000000000
 -1.303042243096870E-004 -5.300433429723219E-004 -6.370497387235121E-004
 -7.356015897286459E-004 0.00000000000000 6.370497387235121E-004
 6.599293859766035E-004 9.123449493105290E-004 0.00000000000000
 7.356015897286459E-004 9.123449493105290E-004 9.233004701006893E-004
 0.00000000000000 0.00000000000000 0.00000000000000
 0.00000000000000 -1.301846101043304E-004 -5.304739416789588E-004
 9.563697644872634E-004 -1.840532259006110E-004 0.00000000000000
 -9.563697644872634E-004 1.648868263609958E-003 -3.424006037550722E-004
 0.00000000000000 1.840532259006110E-004 -3.424006037550722E-004
 -6.440465255063229E-005 0.00000000000000 0.00000000000000
 0.00000000000000 0.00000000000000 -1.302996003119981E-004
 -7.109217404582207E-005 0.00000000000000 1.626499413645041E-004
 0.00000000000000 0.00000000000000 -1.858440411979527E-005
 0.00000000000000 0.00000000000000 -1.626499413645041E-004
 0.00000000000000 2.961265479211404E-004 0.00000000000000
 0.00000000000000 0.00000000000000 0.00000000000000
 -1.858440411979527E-005 -7.109217404582239E-005 0.00000000000000
 -1.626499413645047E-004 0.00000000000000 0.00000000000000
 -1.858440411979534E-005 0.00000000000000 0.00000000000000
 1.626499413645047E-004 0.00000000000000 2.961265479211415E-004
 0.00000000000000 0.00000000000000 0.00000000000000
 0.00000000000000 -1.858440411979534E-005 -7.109089007970226E-005
 1.408570537732571E-004 8.132376022486351E-005 0.00000000000000
 -1.408570537732571E-004 2.174459764572442E-004 1.362718754658333E-004
 0.00000000000000 -8.132376022486351E-005 1.362718754658333E-004
 6.009239045682703E-005 0.00000000000000 0.00000000000000
 0.00000000000000 0.00000000000000 -1.858411901791485E-005
 -7.109089007970226E-005 1.408570537732571E-004 -8.132376022486350E-005
 0.00000000000000 -1.408570537732571E-004 2.174459764572442E-004
 -1.362718754658332E-004 0.00000000000000 8.132376022486350E-005
 -1.362718754658332E-004 6.009239045682699E-005 0.00000000000000
 0.00000000000000 0.00000000000000 0.00000000000000
 -1.858411901791485E-005 -8.250998950814655E-006 5.831256668833973E-005
 2.081050211996155E-006 0.00000000000000 1.341197736099389E-005
 2.461322029763071E-005 -8.422812962464571E-006 0.00000000000000
 1.452139635409652E-005 3.907922641152644E-006 6.768733522115005E-006
 0.00000000000000 -3.907922641152644E-006 9.597157598476480E-006
 1.677005991838243E-005 0.00000000000000 -6.768733522115005E-006
 1.677005991838243E-005 2.896162894324229E-005 0.00000000000000
 0.00000000000000 0.00000000000000 0.00000000000000
 -8.502247766504415E-008 1.452139635409649E-005 3.907922641152681E-006
 -6.768733522115067E-006 0.00000000000000 -3.907922641152681E-006
 9.597157598476507E-006 -1.677005991838248E-005 0.00000000000000
 6.768733522115067E-006 -1.677005991838248E-005 2.896162894324235E-005
 0.00000000000000 0.00000000000000 0.00000000000000
 0.00000000000000 -8.502247766505156E-008 1.449506965114458E-005
 7.820763878947883E-006 0.00000000000000 0.00000000000000
 -7.820763878947883E-006 3.860606661616133E-005 0.00000000000000
 0.00000000000000 0.00000000000000 0.00000000000000
 -8.712912199409752E-008 0.00000000000000 0.00000000000000
 0.00000000000000 0.00000000000000 -8.712912199409752E-008
 1.761111999135433E-005 -9.876444126089574E-007 3.991520146565195E-006
 0.00000000000000 9.876444126089574E-007 2.344789380665701E-006
 -5.034329771500036E-006 0.00000000000000 -3.991520146565195E-006
 -5.034329771500036E-006 2.144513236489230E-005 0.00000000000000
 0.00000000000000 0.00000000000000 0.00000000000000
 1.099116682675797E-006 1.760977774543121E-005 -2.962425693934015E-006
 -2.850592028867267E-006 0.00000000000000 2.962425693934015E-006
 1.230948838885283E-005 1.078731778291906E-005 0.00000000000000
 2.850592028867267E-006 1.078731778291906E-005 1.147905434351288E-005
 0.00000000000000 0.00000000000000 0.00000000000000
 0.00000000000000 1.098965436029846E-006 1.758515750045037E-005
 -3.934805337567934E-006 -1.135879634453340E-006 0.00000000000000
 3.934805337567934E-006 2.101162397106800E-005 5.749152127036238E-006
 0.00000000000000 1.135879634453340E-006 5.749152127036238E-006
 2.755598377386945E-006 0.00000000000000 0.00000000000000
 0.00000000000000 0.00000000000000 1.095962320140233E-006
 2.170543671833635E-005 -3.156391483413914E-006 -1.822343180044880E-006
 0.00000000000000 1.377918246981340E-006 0.00000000000000
 -1.403509114977023E-006 0.00000000000000 0.00000000000000
 1.789589282551437E-007 0.00000000000000 0.00000000000000
 1.403509114977023E-006 0.00000000000000 3.985176342629299E-007
 0.00000000000000 0.00000000000000 0.00000000000000
 0.00000000000000 1.789589282551437E-007 1.376263265031073E-006
 -1.213451764825729E-006 7.005861936280414E-007 0.00000000000000
 1.213451764825729E-006 3.439080339070461E-007 -9.541492128805424E-008
 0.00000000000000 -7.005861936280414E-007 -9.541492128805424E-008
 2.337322126942739E-007 0.00000000000000 0.00000000000000
 0.00000000000000 0.00000000000000 1.786444222618975E-007
 -0.494662279864415 0.00000000000000 0.00000000000000
 0.00000000000000 0.00000000000000 -0.184125669864415
 0.00000000000000 0.00000000000000 0.00000000000000
 0.00000000000000 -0.184125669864415 0.00000000000000
 0.00000000000000 0.00000000000000 0.00000000000000
 -0.184125669864415 -0.277418327209844 0.246637805548907
 0.142396386671859 0.00000000000000 -0.246637805548907
 0.159059366107571 0.160297549878943 0.00000000000000
 -0.142396386671859 0.160297549878943 -2.603634459466266E-002
 0.00000000000000 0.00000000000000 0.00000000000000
 0.00000000000000 -0.118584167278673 -4.719264289073125E-002
 5.646918696556209E-002 -4.296082215802079E-003 0.00000000000000
 -3.026359225542494E-002 4.224481638468940E-002 0.00000000000000
 0.00000000000000 -4.224481638468940E-002 5.380105996208344E-002
 0.00000000000000 0.00000000000000 0.00000000000000
 0.00000000000000 -9.237409426790848E-003 0.00000000000000
 0.00000000000000 0.00000000000000 0.00000000000000
 -9.237409426790848E-003 -1.379554756612125E-002 1.548969549260008E-002
 1.129983874819856E-002 0.00000000000000 -1.541311116636549E-003
 1.599287625582497E-003 -1.968369049855474E-003 0.00000000000000
 -5.300535548299646E-004 9.555931808970912E-004 1.839040215892393E-004
 0.00000000000000 -9.555931808970912E-004 1.647602091813848E-003
 3.421357836982621E-004 0.00000000000000 -1.839040215892393E-004
 3.421357836982621E-004 -6.434324476471962E-005 0.00000000000000
 0.00000000000000 0.00000000000000 0.00000000000000
 -1.301873171267978E-004 -5.298837243415898E-004 3.184267459693005E-004
 -9.192187293588957E-004 0.00000000000000 -3.184267459693005E-004
 6.732841625532985E-005 -5.700479738894510E-004 0.00000000000000
 9.192187293588957E-004 -5.700479738894510E-004 1.515444544578806E-003
 0.00000000000000 0.00000000000000 0.00000000000000
 0.00000000000000 -1.301420176843808E-004 -7.105409819628497E-005
 1.406942713397550E-004 8.122988787862132E-005 0.00000000000000
 -1.406942713397550E-004 2.172184081470286E-004 1.361277629758334E-004
 0.00000000000000 -8.122988787862132E-005 1.361277629758334E-004
 6.003165512317709E-005 0.00000000000000 0.00000000000000
 0.00000000000000 0.00000000000000 -1.856175751827993E-005
 -7.105409819628497E-005 1.406942713397550E-004 -8.122988787862132E-005
 0.00000000000000 -1.406942713397550E-004 2.172184081470286E-004
 -1.361277629758334E-004 0.00000000000000 8.122988787862132E-005
 -1.361277629758334E-004 6.003165512317709E-005 0.00000000000000
 0.00000000000000 0.00000000000000 0.00000000000000
 -1.856175751827993E-005 -7.101413439738165E-005 0.00000000000000
 1.622612189708933E-004 0.00000000000000 0.00000000000000
 -1.853811246652139E-005 0.00000000000000 0.00000000000000
 -1.622612189708933E-004 0.00000000000000 2.954831914082432E-004
 0.00000000000000 0.00000000000000 0.00000000000000
 0.00000000000000 -1.853811246652139E-005 -7.101413439738165E-005
 0.00000000000000 -1.622612189708933E-004 0.00000000000000
 0.00000000000000 -1.853811246652139E-005 0.00000000000000
 0.00000000000000 1.622612189708933E-004 0.00000000000000
 2.954831914082432E-004 0.00000000000000 0.00000000000000
 0.00000000000000 0.00000000000000 -1.853811246652139E-005
 -8.306721380035364E-006 2.729763305135864E-005 5.143439490577885E-005
 0.00000000000000 1.445242131155325E-005 7.829931637767863E-006
 0.00000000000000 0.00000000000000 -7.829931637767863E-006
 3.854737353564994E-005 0.00000000000000 0.00000000000000
 0.00000000000000 0.00000000000000 -9.064008083177711E-008
 0.00000000000000 0.00000000000000 0.00000000000000
 0.00000000000000 -9.064008083177711E-008 1.445117567142696E-005
 3.914934330371500E-006 6.780864370672975E-006 0.00000000000000
 -3.914934330371500E-006 9.568212998890761E-006 1.672975361818549E-005
 0.00000000000000 -6.780864370672975E-006 1.672975361818549E-005
 2.888606396294367E-005 0.00000000000000 0.00000000000000
 0.00000000000000 0.00000000000000 -9.071589249938046E-008
 1.445117567142696E-005 3.914934330371500E-006 -6.780864370672975E-006
 0.00000000000000 -3.914934330371500E-006 9.568212998890761E-006
 -1.672975361818549E-005 0.00000000000000 6.780864370672975E-006
 -1.672975361818549E-005 2.888606396294367E-005 0.00000000000000
 0.00000000000000 0.00000000000000 0.00000000000000
 -9.071589249938046E-008 1.505068769782122E-005 1.013543687836812E-005
 -2.063943696221138E-005 0.00000000000000 1.754353305081096E-005
 -3.908950098628947E-006 1.128417709377415E-006 0.00000000000000
 3.908950098628947E-006 2.098314433970615E-005 -5.742414362071006E-006
 0.00000000000000 -1.128417709377415E-006 -5.742414362071006E-006
 2.748549068088676E-006 0.00000000000000 0.00000000000000
 0.00000000000000 0.00000000000000 1.090855340297954E-006
 1.754355483203262E-005 -2.931842321374487E-006 2.821167021410358E-006
 0.00000000000000 2.931842321374487E-006 1.228014977309872E-005
 -1.076688911567783E-005 0.00000000000000 -2.821167021410358E-006
 -1.076688911567783E-005 1.145131756467837E-005 0.00000000000000
 0.00000000000000 0.00000000000000 0.00000000000000
 1.090872094987447E-006 1.751757757098659E-005 -9.733015535478741E-007
 -3.933550934789254E-006 0.00000000000000 9.733015535478741E-007
 2.330024701920906E-006 5.020778154342871E-006 0.00000000000000
 3.933550934789254E-006 5.020778154342871E-006 2.137893509285306E-005
 0.00000000000000 0.00000000000000 0.00000000000000
 0.00000000000000 1.087704147629423E-006 1.373809822258675E-006
 -1.210330024855655E-006 -6.987849932990257E-007 0.00000000000000
 1.210330024855655E-006 3.444714740939610E-007 9.602177847897818E-008
 0.00000000000000 6.987849932990257E-007 9.602177847897818E-008
 2.335952739639090E-007 0.00000000000000 0.00000000000000
 0.00000000000000 0.00000000000000 1.781570245170315E-007
 -0.496546278487214 0.00000000000000 0.00000000000000
 0.00000000000000 0.00000000000000 -0.186009668487214
 0.00000000000000 0.00000000000000 0.00000000000000
 0.00000000000000 -0.186009668487214 0.00000000000000
 0.00000000000000 0.00000000000000 0.00000000000000
 -0.186009668487214 -0.277820222163493 0.247052392083240
 -0.142635748290896 0.00000000000000 -0.247052392083240
 0.159375299463464 -0.160608680852152 0.00000000000000
 0.142635748290896 -0.160608680852152 -2.607967442558190E-002
 0.00000000000000 0.00000000000000 0.00000000000000
 0.00000000000000 -0.118807128639592 -3.028644684822030E-002
 4.228189225189133E-002 0.00000000000000 0.00000000000000
 -4.228189225189133E-002 5.385877877266936E-002 0.00000000000000
 0.00000000000000 0.00000000000000 0.00000000000000
 -9.245687517884797E-003 0.00000000000000 0.00000000000000
 0.00000000000000 0.00000000000000 -9.245687517884797E-003
 -1.067426588355374E-002 1.418722049375598E-002 8.190997935701006E-003
 0.00000000000000 -1.418722049375598E-002 1.682538045987330E-002
 1.146905383112170E-002 0.00000000000000 -8.190997935701006E-003
 1.146905383112170E-002 3.582065472545404E-003 0.00000000000000
 0.00000000000000 0.00000000000000 0.00000000000000
 -3.039597755745675E-003 -1.542249387473859E-003 2.505826768938190E-003
 4.010830019269812E-004 0.00000000000000 -5.303398592361485E-004
 9.561201435662164E-004 -1.840056350006819E-004 0.00000000000000
 -9.561201435662164E-004 1.648461774554596E-003 -3.423162841793767E-004
 0.00000000000000 1.840056350006819E-004 -3.423162841793767E-004
 -6.438473379385689E-005 0.00000000000000 0.00000000000000
 0.00000000000000 0.00000000000000 -1.302636148794094E-004
 -5.303321485892504E-004 6.374045574846063E-004 -7.360115981647933E-004
 0.00000000000000 -6.374045574846063E-004 6.602721810709874E-004
 -9.128301072766134E-004 0.00000000000000 7.360115981647933E-004
 -9.128301072766134E-004 9.237840676448076E-004 0.00000000000000
 0.00000000000000 0.00000000000000 0.00000000000000
 -1.302616529583518E-004 -5.303223840514828E-004 3.186964058928816E-004
 9.199971704146500E-004 0.00000000000000 -3.186964058928816E-004
 6.737097285500904E-005 5.705086955768501E-004 0.00000000000000
 -9.199971704146500E-004 5.705086955768501E-004 1.516657491280281E-003
 0.00000000000000 0.00000000000000 0.00000000000000
 0.00000000000000 -1.302590597776252E-004 -3.062712471636773E-004
 4.655661059646925E-004 -2.687946692839439E-004 0.00000000000000
 -1.633006889025961E-004 2.487623006669804E-004 1.677951204233421E-004
 0.00000000000000 -7.108004756855283E-005 1.408029537565749E-004
 8.129272379718219E-005 0.00000000000000 -1.408029537565749E-004
 2.173705723934091E-004 1.362244015284539E-004 0.00000000000000
 -8.129272379718219E-005 1.362244015284539E-004 6.007257170264576E-005
 0.00000000000000 0.00000000000000 0.00000000000000
 0.00000000000000 -1.857672046372641E-005 -7.108004756855251E-005
 1.408029537565744E-004 -8.129272379718193E-005 0.00000000000000
 -1.408029537565744E-004 2.173705723934084E-004 -1.362244015284534E-004
 0.00000000000000 8.129272379718193E-005 -1.362244015284534E-004
 6.007257170264561E-005 0.00000000000000 0.00000000000000
 0.00000000000000 0.00000000000000 -1.857672046372634E-005
 -7.106372842479521E-005 0.00000000000000 1.625082512093799E-004
 0.00000000000000 0.00000000000000 -1.856753071182820E-005
 0.00000000000000 0.00000000000000 -1.625082512093799E-004
 0.00000000000000 2.958920430775532E-004 0.00000000000000
 0.00000000000000 0.00000000000000 0.00000000000000
 -1.856753071182820E-005 -7.106372842479521E-005 0.00000000000000
 -1.625082512093799E-004 0.00000000000000 0.00000000000000
 -1.856753071182820E-005 0.00000000000000 0.00000000000000
 1.625082512093799E-004 0.00000000000000 2.958920430775532E-004
 0.00000000000000 0.00000000000000 0.00000000000000
 0.00000000000000 -1.856753071182820E-005 1.449633719638101E-005
 3.910389126970738E-006 -6.772994600507238E-006 0.00000000000000
 -3.910389126970738E-006 9.586807523843988E-006 -1.675561420277563E-005
 0.00000000000000 6.772994600507238E-006 -1.675561420277563E-005
 2.893453543526953E-005 0.00000000000000 0.00000000000000
 0.00000000000000 0.00000000000000 -8.704805391527772E-008
 1.449633719638101E-005 3.910389126970738E-006 6.772994600507238E-006
 0.00000000000000 -3.910389126970738E-006 9.586807523843988E-006
 1.675561420277563E-005 0.00000000000000 -6.772994600507238E-006
 1.675561420277563E-005 2.893453543526953E-005 0.00000000000000
 0.00000000000000 0.00000000000000 0.00000000000000
 -8.704805391527772E-008 1.449509167520670E-005 7.820690267669352E-006
 0.00000000000000 0.00000000000000 -7.820690267669352E-006
 3.860595848056490E-005 0.00000000000000 0.00000000000000
 0.00000000000000 0.00000000000000 -8.712175159801192E-008
 0.00000000000000 0.00000000000000 0.00000000000000
 0.00000000000000 -8.712175159801192E-008 1.944678494630259E-005
 9.797692753367521E-006 -1.069721807418686E-005 0.00000000000000
 1.758647427084428E-005 -2.951497698106040E-006 -2.840083496815486E-006
 0.00000000000000 2.951497698106040E-006 1.229931707036794E-005
 1.078031568835813E-005 0.00000000000000 2.840083496815486E-006
 1.078031568835813E-005 1.146947466777833E-005 0.00000000000000
 0.00000000000000 0.00000000000000 0.00000000000000
 1.096098230245020E-006 1.758514183376167E-005 -9.836635369073873E-007
 3.975428387035684E-006 0.00000000000000 9.836635369073873E-007
 2.340690307171372E-006 -5.030566009418009E-006 0.00000000000000
 -3.975428387035684E-006 -5.030566009418009E-006 2.142673597246022E-005
 0.00000000000000 0.00000000000000 0.00000000000000
 0.00000000000000 1.095947886553901E-006 1.758515573177939E-005
 -3.934844336027454E-006 -1.135890661552758E-006 0.00000000000000
 3.934844336027454E-006 2.101156370848797E-005 5.749132604705443E-006
 0.00000000000000 1.135890661552758E-006 5.749132604705443E-006
 2.755595723166302E-006 0.00000000000000 0.00000000000000
 0.00000000000000 0.00000000000000 1.095965638712604E-006
 1.376238549339180E-006 -1.213430309616282E-006 7.005736641311395E-007
 0.00000000000000 1.213430309616282E-006 3.439016712901574E-007
 -9.541307131402083E-008 0.00000000000000 -7.005736641311395E-007
 -9.541307131402083E-008 2.337279414787663E-007 0.00000000000000
 0.00000000000000 0.00000000000000 0.00000000000000
 1.786412303205400E-007 -0.497686201014048 0.00000000000000
 0.00000000000000 0.00000000000000 0.00000000000000
 -0.187149591014048 0.00000000000000 0.00000000000000
 0.00000000000000 0.00000000000000 -0.187149591014048
 0.00000000000000 0.00000000000000 0.00000000000000
 0.00000000000000 -0.187149591014048 -0.277984359213248
 0.247220999146602 0.142733557598045 0.00000000000000
 -0.247220999146602 0.159503039321673 0.160735542088402
 0.00000000000000 -0.142733557598045 0.160735542088402
 -2.609721466639787E-002 0.00000000000000 0.00000000000000
 0.00000000000000 0.00000000000000 -0.118898213909682
 -0.277982854295565 0.00000000000000 -0.285465222074495
 0.00000000000000 0.00000000000000 -0.118897353860985
 0.00000000000000 0.00000000000000 0.285465222074495
 0.00000000000000 0.252303250499347 0.00000000000000
 0.00000000000000 0.00000000000000 0.00000000000000
 -0.118897353860985 -3.029989984539964E-002 2.115179941642746E-002
 -3.663610604352369E-002 0.00000000000000 -2.115179941642746E-002
 6.535181145785611E-003 -2.734178902816621E-002 0.00000000000000
 3.663610604352369E-002 -2.734178902816621E-002 3.810695748801741E-002
 0.00000000000000 0.00000000000000 0.00000000000000
 0.00000000000000 -9.250558652079226E-003 -3.029989984539964E-002
 2.115179941642746E-002 3.663610604352369E-002 0.00000000000000
 -2.115179941642746E-002 6.535181145785611E-003 2.734178902816621E-002
 0.00000000000000 -3.663610604352369E-002 2.734178902816621E-002
 3.810695748801741E-002 0.00000000000000 0.00000000000000
 0.00000000000000 0.00000000000000 -9.250558652079226E-003
 -3.029908992289209E-002 -2.115120227249552E-002 -3.663498243912799E-002
 0.00000000000000 2.115120227249552E-002 6.534977723975052E-003
 2.734086852200538E-002 0.00000000000000 3.663498243912799E-002
 2.734086852200538E-002 3.810553721031402E-002 0.00000000000000
 0.00000000000000 0.00000000000000 0.00000000000000
 -9.250269106032882E-003 -3.029908992289209E-002 -2.115120227249552E-002
 3.663498243912799E-002 0.00000000000000 2.115120227249552E-002
 6.534977723975052E-003 -2.734086852200538E-002 0.00000000000000
 -3.663498243912799E-002 -2.734086852200538E-002 3.810553721031402E-002
 0.00000000000000 0.00000000000000 0.00000000000000
 0.00000000000000 -9.250269106032882E-003 -3.029864054439942E-002
 4.230186196933891E-002 0.00000000000000 0.00000000000000
 -4.230186196933891E-002 5.389016341017354E-002 0.00000000000000
 0.00000000000000 0.00000000000000 0.00000000000000
 -9.250121174303303E-003 0.00000000000000 0.00000000000000
 0.00000000000000 0.00000000000000 -9.250121174303303E-003
 -1.067834948183204E-002 0.00000000000000 1.638909022367396E-002
 0.00000000000000 0.00000000000000 -3.040912412283319E-003
 0.00000000000000 0.00000000000000 -1.638909022367396E-002
 0.00000000000000 2.345910265672072E-002 0.00000000000000
 0.00000000000000 0.00000000000000 0.00000000000000
 -3.040912412283319E-003 -1.067799333664247E-002 1.419288051019117E-002
 -8.194245770820742E-003 0.00000000000000 -1.419288051019117E-002
 1.683348276803175E-002 -1.147439823651681E-002 0.00000000000000
 8.194245770820742E-003 -1.147439823651681E-002 3.583931991139985E-003
 0.00000000000000 0.00000000000000 0.00000000000000
 0.00000000000000 -3.040800680622948E-003 -5.305023223839970E-004
 3.188059834370968E-004 -9.203164851812607E-004 0.00000000000000
 -3.188059834370968E-004 6.738726185638191E-005 -5.706960781860723E-004
 0.00000000000000 9.203164851812607E-004 -5.706960781860723E-004
 1.517155794039814E-003 0.00000000000000 0.00000000000000
 0.00000000000000 0.00000000000000 -1.303070393751890E-004
 -5.304844370464870E-004 6.375933503572418E-004 7.362278025122165E-004
 0.00000000000000 -6.375933503572418E-004 6.604559025965683E-004
 9.130870515003524E-004 0.00000000000000 -7.362278025122165E-004
 9.130870515003524E-004 9.240374643244676E-004 0.00000000000000
 0.00000000000000 0.00000000000000 0.00000000000000
 -1.303023794832024E-004 -5.303228674652378E-004 9.560911518104859E-004
 1.839996069303740E-004 0.00000000000000 -9.560911518104859E-004
 1.648413881417547E-003 3.423054004512214E-004 0.00000000000000
 -1.839996069303740E-004 3.423054004512214E-004 -6.438266513321114E-005
 0.00000000000000 0.00000000000000 0.00000000000000
 0.00000000000000 -1.302592910322170E-004 -7.109373553221079E-005
 0.00000000000000 -1.626577192663612E-004 0.00000000000000
 0.00000000000000 -1.858533036418428E-005 0.00000000000000
 0.00000000000000 1.626577192663612E-004 0.00000000000000
 2.961394207679296E-004 0.00000000000000 0.00000000000000
 0.00000000000000 0.00000000000000 -1.858533036418428E-005
 -7.109373553221046E-005 0.00000000000000 1.626577192663606E-004
 0.00000000000000 0.00000000000000 -1.858533036418421E-005
 0.00000000000000 0.00000000000000 -1.626577192663606E-004
 0.00000000000000 2.961394207679286E-004 0.00000000000000
 0.00000000000000 0.00000000000000 0.00000000000000
 -1.858533036418421E-005 -7.107745194349540E-005 1.407990835388019E-004
 8.129029113459987E-005 0.00000000000000 -1.407990835388019E-004
 2.173648792288391E-004 1.362204517145357E-004 0.00000000000000
 -8.129029113459987E-005 1.362204517145357E-004 6.007067240438635E-005
 0.00000000000000 0.00000000000000 0.00000000000000
 0.00000000000000 -1.857614758936500E-005 -7.107745194349540E-005
 1.407990835388019E-004 -8.129029113459987E-005 0.00000000000000
 -1.407990835388019E-004 2.173648792288391E-004 -1.362204517145357E-004
 0.00000000000000 8.129029113459987E-005 -1.362204517145357E-004
 6.007067240438635E-005 0.00000000000000 0.00000000000000
 0.00000000000000 0.00000000000000 -1.857614758936500E-005
 1.452153667287138E-005 3.907747302760145E-006 6.768402323845221E-006
 0.00000000000000 -3.907747302760145E-006 9.597121398736746E-006
 1.676986093884592E-005 0.00000000000000 -6.768402323845221E-006
 1.676986093884592E-005 2.896120561269731E-005 0.00000000000000
 0.00000000000000 0.00000000000000 0.00000000000000
 -8.498313877958214E-008 1.452153667287138E-005 3.907747302760145E-006
 -6.768402323845220E-006 0.00000000000000 -3.907747302760145E-006
 9.597121398736754E-006 -1.676986093884592E-005 0.00000000000000
 6.768402323845220E-006 -1.676986093884592E-005 2.896120561269730E-005
 0.00000000000000 0.00000000000000 0.00000000000000
 0.00000000000000 -8.498313877958214E-008 1.445265369775886E-005
 7.829332249584559E-006 0.00000000000000 0.00000000000000
 -7.829332249584559E-006 3.854658858337325E-005 0.00000000000000
 0.00000000000000 0.00000000000000 0.00000000000000
 -9.057663233402971E-008 0.00000000000000 0.00000000000000
 0.00000000000000 0.00000000000000 -9.057663233402971E-008
 1.761246383316054E-005 -9.878407274913288E-007 -3.992323277685086E-006
 0.00000000000000 9.878407274913288E-007 2.344996105030756E-006
 5.034525577020435E-006 0.00000000000000 3.992323277685086E-006
 5.034525577020435E-006 2.144613462255312E-005 0.00000000000000
 0.00000000000000 0.00000000000000 0.00000000000000
 1.099277994882793E-006 1.758650831875972E-005 -2.951719447861347E-006
 2.840289951155637E-006 0.00000000000000 2.951719447861347E-006
 1.229914239241488E-005 -1.078009436642512E-005 0.00000000000000
 -2.840289951155637E-006 -1.078009436642512E-005 1.146926442330268E-005
 0.00000000000000 0.00000000000000 0.00000000000000
 0.00000000000000 1.096126243232309E-006 1.754357424556742E-005
 -3.909295431800579E-006 1.128515564327351E-006 0.00000000000000
 3.909295431800579E-006 2.098270155466294E-005 -5.742267610919071E-006
 0.00000000000000 -1.128515564327351E-006 -5.742267610919071E-006
 2.748537254553158E-006 0.00000000000000 0.00000000000000
 0.00000000000000 0.00000000000000 1.090888584478030E-006
 1.378090386020948E-006 0.00000000000000 1.403756033516063E-006
 0.00000000000000 0.00000000000000 1.789922327489301E-007
 0.00000000000000 0.00000000000000 -1.403756033516063E-006
 0.00000000000000 3.984621607877390E-007 0.00000000000000
 0.00000000000000 0.00000000000000 0.00000000000000
 1.789922327489301E-007 1.373615978182339E-006 -1.210163199254247E-006
 -6.986875407907340E-007 0.00000000000000 1.210163199254247E-006
 3.444198279634239E-007 9.600611402586683E-008 0.00000000000000
 6.986875407907340E-007 9.600611402586683E-008 2.335613551852125E-007
 0.00000000000000 0.00000000000000 0.00000000000000
 0.00000000000000 1.781322397147172E-007 -0.497685986026671
 0.00000000000000 0.00000000000000 0.00000000000000
 0.00000000000000 -0.187149376026671 0.00000000000000
 0.00000000000000 0.00000000000000 0.00000000000000
 -0.187149376026671 0.00000000000000 0.00000000000000
 0.00000000000000 0.00000000000000 -0.187149376026671
 -0.277982796006230 0.00000000000000 0.285465152642273
 0.00000000000000 0.00000000000000 -0.118897321523505
 0.00000000000000 0.00000000000000 -0.285465152642273
 0.00000000000000 0.252303178624488 0.00000000000000
 0.00000000000000 0.00000000000000 0.00000000000000
 -0.118897321523505 -0.277971113982659 0.247209653884822
 -0.142725499515968 0.00000000000000 -0.247209653884822
 0.159496818818885 -0.160725961208536 0.00000000000000
 0.142725499515968 -0.160725961208536 -2.609629363847551E-002
 0.00000000000000 0.00000000000000 0.00000000000000
 0.00000000000000 -0.118890780982244 -3.029989984539964E-002
 -2.115179941642746E-002 3.663610604352369E-002 0.00000000000000
 2.115179941642746E-002 6.535181145785611E-003 -2.734178902816621E-002
 0.00000000000000 -3.663610604352369E-002 -2.734178902816621E-002
 3.810695748801742E-002 0.00000000000000 0.00000000000000
 0.00000000000000 0.00000000000000 -9.250558652079226E-003
 -3.029989984539964E-002 -2.115179941642746E-002 -3.663610604352368E-002
 0.00000000000000 2.115179941642746E-002 6.535181145785632E-003
 2.734178902816621E-002 0.00000000000000 3.663610604352368E-002
 2.734178902816621E-002 3.810695748801739E-002 0.00000000000000
 0.00000000000000 0.00000000000000 0.00000000000000
 -9.250558652079226E-003 -3.029869405827796E-002 2.115108197093665E-002
 3.663447635032428E-002 0.00000000000000 -2.115108197093665E-002
 6.535130454010560E-003 2.734068498979008E-002 0.00000000000000
 -3.663447635032428E-002 2.734068498979008E-002 3.810496488857441E-002
 0.00000000000000 0.00000000000000 0.00000000000000
 0.00000000000000 -9.250138696028440E-003 -3.029869405827799E-002
 2.115108197093668E-002 -3.663447635032432E-002 0.00000000000000
 -2.115108197093668E-002 6.535130454010563E-003 -2.734068498979011E-002
 0.00000000000000 3.663447635032432E-002 -2.734068498979011E-002
 3.810496488857445E-002 0.00000000000000 0.00000000000000
 0.00000000000000 0.00000000000000 -9.250138696028452E-003
 -3.028574185727250E-002 4.228100730842545E-002 0.00000000000000
 0.00000000000000 -4.228100730842545E-002 5.385780776656885E-002
 0.00000000000000 0.00000000000000 0.00000000000000
 0.00000000000000 -9.245455534331575E-003 0.00000000000000
 0.00000000000000 0.00000000000000 0.00000000000000
 -9.245455534331575E-003 -1.067826152464906E-002 -1.419319375041130E-002
 8.194459916939933E-003 0.00000000000000 1.419319375041130E-002
 1.683378454753992E-002 -1.147466577293092E-002 0.00000000000000
 -8.194459916939933E-003 -1.147466577293092E-002 3.584032522999552E-003
 0.00000000000000 0.00000000000000 0.00000000000000
 0.00000000000000 -3.040881530177533E-003 -1.067834793433061E-002
 0.00000000000000 -1.638908753623978E-002 0.00000000000000
 0.00000000000000 -3.040911914234386E-003 0.00000000000000
 0.00000000000000 1.638908753623978E-002 0.00000000000000
 2.345909809518437E-002 0.00000000000000 0.00000000000000
 0.00000000000000 0.00000000000000 -3.040911914234386E-003
 -1.067402400634979E-002 1.418693780073915E-002 8.190804768594295E-003
 0.00000000000000 -1.418693780073915E-002 1.682510773263253E-002
 1.146881232656777E-002 0.00000000000000 -8.190804768594295E-003
 1.146881232656777E-002 3.581974749778124E-003 0.00000000000000
 0.00000000000000 0.00000000000000 0.00000000000000
 -3.039524830608422E-003 -5.304970565169086E-004 -6.376062680204855E-004
 -7.362457101569713E-004 0.00000000000000 6.376062680204855E-004
 6.604663595034865E-004 9.131065447876009E-004 0.00000000000000
 7.362457101569713E-004 9.131065447876009E-004 9.240610458813671E-004
 0.00000000000000 0.00000000000000 0.00000000000000
 0.00000000000000 -1.303055910766724E-004 -5.304853100986229E-004
 3.187988956432334E-004 9.202863017440825E-004 0.00000000000000
 -3.187988956432334E-004 6.738940645066074E-005 5.706834282120132E-004
 0.00000000000000 -9.202863017440825E-004 5.706834282120132E-004
 1.517106310087820E-003 0.00000000000000 0.00000000000000
 0.00000000000000 0.00000000000000 -1.303026012768180E-004
 -5.303207694787604E-004 6.373929042039644E-004 -7.359954505404248E-004
 0.00000000000000 -6.373929042039644E-004 6.602627431709314E-004
 -9.128125268321206E-004 0.00000000000000 7.359954505404248E-004
 -9.128125268321206E-004 9.237628091244502E-004 0.00000000000000
 0.00000000000000 0.00000000000000 0.00000000000000
 -1.302587567161497E-004 -5.300384107813725E-004 9.555673347500897E-004
 -1.838986489611313E-004 0.00000000000000 -9.555673347500897E-004
 1.647559398788563E-003 -3.421260842303240E-004 0.00000000000000
 1.838986489611313E-004 -3.421260842303240E-004 -6.434139984512664E-005
 0.00000000000000 0.00000000000000 0.00000000000000
 0.00000000000000 -1.301834628545046E-004 -7.109372987292297E-005
 0.00000000000000 1.626576910769489E-004 0.00000000000000
 0.00000000000000 -1.858532700720120E-005 0.00000000000000
 0.00000000000000 -1.626576910769489E-004 0.00000000000000
 2.961393741129329E-004 0.00000000000000 0.00000000000000
 0.00000000000000 0.00000000000000 -1.858532700720120E-005
 -7.109372987292329E-005 0.00000000000000 -1.626576910769495E-004
 0.00000000000000 0.00000000000000 -1.858532700720127E-005
 0.00000000000000 0.00000000000000 1.626576910769495E-004
 0.00000000000000 2.961393741129339E-004 0.00000000000000
 0.00000000000000 0.00000000000000 0.00000000000000
 -1.858532700720127E-005 -7.105178830734607E-005 1.406908146293276E-004
 -8.122771611382317E-005 0.00000000000000 -1.406908146293276E-004
 2.172133235547536E-004 -1.361242371237094E-004 0.00000000000000
 8.122771611382317E-005 -1.361242371237094E-004 6.002996055959902E-005
 0.00000000000000 0.00000000000000 0.00000000000000
 0.00000000000000 -1.856124611176049E-005 -7.105178830734607E-005
 1.406908146293276E-004 8.122771611382320E-005 0.00000000000000
 -1.406908146293276E-004 2.172133235547535E-004 1.361242371237094E-004
 0.00000000000000 -8.122771611382320E-005 1.361242371237094E-004
 6.002996055959905E-005 0.00000000000000 0.00000000000000
 0.00000000000000 0.00000000000000 -1.856124611176049E-005
 1.449645951314315E-005 3.910231873540513E-006 6.772697461414757E-006
 0.00000000000000 -3.910231873540513E-006 9.586773356929835E-006
 1.675543303180038E-005 0.00000000000000 -6.772697461414757E-006
 1.675543303180038E-005 2.893415056083307E-005 0.00000000000000
 0.00000000000000 0.00000000000000 0.00000000000000
 -8.701299912472082E-008 1.449645951314315E-005 3.910231873540513E-006
 -6.772697461414756E-006 0.00000000000000 -3.910231873540513E-006
 9.586773356929844E-006 -1.675543303180038E-005 0.00000000000000
 6.772697461414756E-006 -1.675543303180038E-005 2.893415056083306E-005
 0.00000000000000 0.00000000000000 0.00000000000000
 0.00000000000000 -8.701299912472082E-008 1.441126127564356E-005
 7.837487009473091E-006 0.00000000000000 0.00000000000000
 -7.837487009473091E-006 3.848812975052460E-005 0.00000000000000
 0.00000000000000 0.00000000000000 0.00000000000000
 -9.392427169578165E-008 0.00000000000000 0.00000000000000
 0.00000000000000 0.00000000000000 -9.392427169578165E-008
 1.761112037080876E-005 -9.876770777076671E-007 3.991619722075401E-006
 0.00000000000000 9.876770777076671E-007 2.344807481888483E-006
 -5.034326071401158E-006 0.00000000000000 -3.991619722075401E-006
 -5.034326071401158E-006 2.144496095848983E-005 0.00000000000000
 0.00000000000000 0.00000000000000 0.00000000000000
 1.099125576137268E-006 1.754357777842785E-005 -2.932035693072132E-006
 -2.821346979189050E-006 0.00000000000000 2.932035693072132E-006
 1.227999156545030E-005 1.076669048881329E-005 0.00000000000000
 2.821346979189050E-006 1.076669048881329E-005 1.145112794692497E-005
 0.00000000000000 0.00000000000000 0.00000000000000
 0.00000000000000 1.090896058121175E-006 1.750292453693821E-005
 -3.884478024297617E-006 -1.121350717614046E-006 0.00000000000000
 3.884478024297617E-006 2.095425196479027E-005 5.735480161847942E-006
 0.00000000000000 1.121350717614046E-006 5.735480161847942E-006
 2.741627609686674E-006 0.00000000000000 0.00000000000000
 0.00000000000000 0.00000000000000 1.085939315115296E-006
 1.378089762138267E-006 0.00000000000000 -1.403755138610408E-006
 0.00000000000000 0.00000000000000 1.789921120436160E-007
 0.00000000000000 0.00000000000000 1.403755138610408E-006
 0.00000000000000 3.984623618399842E-007 0.00000000000000
 0.00000000000000 0.00000000000000 0.00000000000000
 1.789921120436160E-007 1.370954586412371E-006 -1.206884847624394E-006
 6.967943602697258E-007 0.00000000000000 1.206884847624394E-006
 3.449009336699986E-007 -9.657835210775743E-008 0.00000000000000
 -6.967943602697258E-007 -9.657835210775743E-008 2.333815603661311E-007
 0.00000000000000 0.00000000000000 0.00000000000000
 0.00000000000000 1.776220973110669E-007 -0.497626882617082
 0.00000000000000 0.00000000000000 0.00000000000000
 0.00000000000000 -0.187090272617082 0.00000000000000
 0.00000000000000 0.00000000000000 0.00000000000000
 -0.187090272617082 0.00000000000000 0.00000000000000
 0.00000000000000 0.00000000000000 -0.187090272617082
 -0.277975153121028 0.247212037333077 0.142728035499828
 0.00000000000000 -0.247212037333077 0.159496769691309
 0.160728570420570 0.00000000000000 -0.142728035499828
 0.160728570420570 -2.609633912446870E-002 0.00000000000000
 0.00000000000000 0.00000000000000 0.00000000000000
 -0.118893087018727 -3.029942203976134E-002 4.230284222616715E-002
 0.00000000000000 0.00000000000000 -4.230284222616715E-002
 5.389123752493175E-002 0.00000000000000 0.00000000000000
 0.00000000000000 0.00000000000000 -9.250378286453637E-003
 0.00000000000000 0.00000000000000 0.00000000000000
 0.00000000000000 -9.250378286453637E-003 -5.304916844340135E-004
 3.188002216839277E-004 -9.202976086587276E-004 0.00000000000000
 -3.188002216839277E-004 6.738710561583491E-005 -5.706861093823189E-004
 0.00000000000000 9.202976086587276E-004 -5.706861093823189E-004
 1.517125815058379E-003 0.00000000000000 0.00000000000000
 0.00000000000000 0.00000000000000 -1.303042243096872E-004
 -5.304739416789588E-004 9.563697644872634E-004 1.840532259006110E-004
 0.00000000000000 -9.563697644872634E-004 1.648868263609957E-003
 3.424006037550722E-004 0.00000000000000 -1.840532259006110E-004
 3.424006037550722E-004 -6.440465255063228E-005 0.00000000000000
 0.00000000000000 0.00000000000000 0.00000000000000
 -1.302996003119980E-004 -7.109217404582239E-005 0.00000000000000
 -1.626499413645047E-004 0.00000000000000 0.00000000000000
 -1.858440411979534E-005 0.00000000000000 0.00000000000000
 1.626499413645047E-004 0.00000000000000 2.961265479211415E-004
 0.00000000000000 0.00000000000000 0.00000000000000
 0.00000000000000 -1.858440411979534E-005 -7.109217404582239E-005
 0.00000000000000 1.626499413645047E-004 0.00000000000000
 0.00000000000000 -1.858440411979534E-005 0.00000000000000
 0.00000000000000 -1.626499413645047E-004 0.00000000000000
 2.961265479211415E-004 0.00000000000000 0.00000000000000
 0.00000000000000 0.00000000000000 -1.858440411979534E-005
 -7.109089007970226E-005 1.408570537732571E-004 8.132376022486351E-005
 0.00000000000000 -1.408570537732571E-004 2.174459764572442E-004
 1.362718754658333E-004 0.00000000000000 -8.132376022486351E-005
 1.362718754658333E-004 6.009239045682703E-005 0.00000000000000
 0.00000000000000 0.00000000000000 0.00000000000000
 -1.858411901791485E-005 -7.109089007970226E-005 1.408570537732571E-004
 -8.132376022486351E-005 0.00000000000000 -1.408570537732571E-004
 2.174459764572442E-004 -1.362718754658333E-004 0.00000000000000
 8.132376022486351E-005 -1.362718754658333E-004 6.009239045682703E-005
 0.00000000000000 0.00000000000000 0.00000000000000
 0.00000000000000 -1.858411901791485E-005 -8.250998950814650E-006
 5.831256668833974E-005 -2.081050211996156E-006 0.00000000000000
 1.341197736099388E-005 2.461322029763071E-005 8.422812962464566E-006
 0.00000000000000 1.452139635409649E-005 3.907922641152681E-006
 -6.768733522115068E-006 0.00000000000000 -3.907922641152681E-006
 9.597157598476505E-006 -1.677005991838247E-005 0.00000000000000
 6.768733522115068E-006 -1.677005991838247E-005 2.896162894324235E-005
 0.00000000000000 0.00000000000000 0.00000000000000
 0.00000000000000 -8.502247766505182E-008 1.452139635409649E-005
 3.907922641152681E-006 6.768733522115068E-006 0.00000000000000
 -3.907922641152681E-006 9.597157598476505E-006 1.677005991838247E-005
 0.00000000000000 -6.768733522115068E-006 1.677005991838247E-005
 2.896162894324235E-005 0.00000000000000 0.00000000000000
 0.00000000000000 0.00000000000000 -8.502247766505182E-008
 1.449506965114457E-005 7.820763878947885E-006 0.00000000000000
 0.00000000000000 -7.820763878947885E-006 3.860606661616133E-005
 0.00000000000000 0.00000000000000 0.00000000000000
 0.00000000000000 -8.712912199409814E-008 0.00000000000000
 0.00000000000000 0.00000000000000 0.00000000000000
 -8.712912199409814E-008 1.761111999135433E-005 -9.876444126089572E-007
 -3.991520146565194E-006 0.00000000000000 9.876444126089572E-007
 2.344789380665701E-006 5.034329771500036E-006 0.00000000000000
 3.991520146565194E-006 5.034329771500036E-006 2.144513236489230E-005
 0.00000000000000 0.00000000000000 0.00000000000000
 0.00000000000000 1.099116682675796E-006 1.760977774543119E-005
 -2.962425693933982E-006 2.850592028867235E-006 0.00000000000000
 2.962425693933982E-006 1.230948838885286E-005 -1.078731778291909E-005
 0.00000000000000 -2.850592028867235E-006 -1.078731778291909E-005
 1.147905434351290E-005 0.00000000000000 0.00000000000000
 0.00000000000000 0.00000000000000 1.098965436029842E-006
 1.758515750045037E-005 -3.934805337567938E-006 1.135879634453341E-006
 0.00000000000000 3.934805337567938E-006 2.101162397106801E-005
 -5.749152127036239E-006 0.00000000000000 -1.135879634453341E-006
 -5.749152127036239E-006 2.755598377386946E-006 0.00000000000000
 0.00000000000000 0.00000000000000 0.00000000000000
 1.095962320140234E-006 2.170543671833634E-005 -3.156391483413907E-006
 1.822343180044876E-006 0.00000000000000 1.376263265031073E-006
 -1.213451764825730E-006 -7.005861936280416E-007 0.00000000000000
 1.213451764825730E-006 3.439080339070460E-007 9.541492128805415E-008
 0.00000000000000 7.005861936280416E-007 9.541492128805415E-008
 2.337322126942739E-007 0.00000000000000 0.00000000000000
 0.00000000000000 0.00000000000000 1.786444222618975E-007
 -0.497686201014048 0.00000000000000 0.00000000000000
 0.00000000000000 0.00000000000000 -0.187149591014047
 0.00000000000000 0.00000000000000 0.00000000000000
 0.00000000000000 -0.187149591014047 0.00000000000000
 0.00000000000000 0.00000000000000 0.00000000000000
 -0.187149591014047 -0.277984359213248 0.247220999146602
 -0.142733557598045 0.00000000000000 -0.247220999146602
 0.159503039321673 -0.160735542088402 0.00000000000000
 0.142733557598045 -0.160735542088402 -2.609721466639781E-002
 0.00000000000000 0.00000000000000 0.00000000000000
[...]
 8.117000162780120E-005 -1.360357981065564E-004 5.999286651203608E-005
 0.00000000000000 0.00000000000000 0.00000000000000
 0.00000000000000 -1.854749273123166E-005 -7.109216803536537E-005
 0.00000000000000 1.626499114258865E-004 0.00000000000000
 0.00000000000000 -1.858440055450515E-005 0.00000000000000
 0.00000000000000 -1.626499114258865E-004 0.00000000000000
 2.961264983711146E-004 0.00000000000000 0.00000000000000
 0.00000000000000 0.00000000000000 -1.858440055450515E-005
 -7.109216803536537E-005 0.00000000000000 -1.626499114258865E-004
 0.00000000000000 0.00000000000000 -1.858440055450515E-005
 0.00000000000000 0.00000000000000 1.626499114258865E-004
 0.00000000000000 2.961264983711146E-004 0.00000000000000
 0.00000000000000 0.00000000000000 0.00000000000000
 -1.858440055450515E-005 -8.251121085933278E-006 -5.831272758815647E-005
 2.081056403106637E-006 0.00000000000000 1.341191926401755E-005
 -2.461329979998593E-005 -8.422841985757583E-006 0.00000000000000
 1.445114481422597E-005 3.914969586871011E-006 -6.780930947421627E-006
 0.00000000000000 -3.914969586871011E-006 9.568219060384772E-006
 -1.672979170399130E-005 0.00000000000000 6.780930947421627E-006
 -1.672979170399130E-005 2.888614540057467E-005 0.00000000000000
 0.00000000000000 0.00000000000000 0.00000000000000
 -9.072397024987521E-008 1.445114481422597E-005 3.914969586871011E-006
 6.780930947421627E-006 0.00000000000000 -3.914969586871011E-006
 9.568219060384772E-006 1.672979170399130E-005 0.00000000000000
 -6.780930947421627E-006 1.672979170399130E-005 2.888614540057467E-005
 0.00000000000000 0.00000000000000 0.00000000000000
 0.00000000000000 -9.072397024987521E-008 1.750153627368705E-005
 -2.912464228272781E-006 -2.802521958136033E-006 0.00000000000000
 2.912464228272781E-006 1.226150941624586E-005 1.075389661358433E-005
 0.00000000000000 2.802521958136033E-006 1.075389661358433E-005
 1.143368902834696E-005 0.00000000000000 0.00000000000000
 0.00000000000000 0.00000000000000 1.085739995177901E-006
 1.758513634837207E-005 -9.836594409753625E-007 3.975415064254284E-006
 0.00000000000000 9.836594409753625E-007 2.340687638573506E-006
 -5.030565588553061E-006 0.00000000000000 -3.975415064254284E-006
 -5.030565588553061E-006 2.142674924104607E-005 0.00000000000000
 0.00000000000000 0.00000000000000 0.00000000000000
 1.095946333666713E-006 2.170547406612629E-005 3.156354905738792E-006
 -1.822322455043324E-006 0.00000000000000 -0.494662389745914
 0.00000000000000 0.00000000000000 0.00000000000000
 0.00000000000000 -0.184125779745914 0.00000000000000
 0.00000000000000 0.00000000000000 0.00000000000000
 -0.184125779745914 0.00000000000000 0.00000000000000
 0.00000000000000 0.00000000000000 -0.184125779745914
 -0.276921504870641 0.246125116195159 0.142100500852115
 0.00000000000000 -0.246125116195159 0.158668488618146
 0.159912878262672 0.00000000000000 -0.142100500852115
 0.159912878262672 -2.598274133300377E-002 0.00000000000000
 0.00000000000000 0.00000000000000 0.00000000000000
 -0.118308548813012 -0.277163011061172 0.00000000000000
 -0.284488653403577 0.00000000000000 0.00000000000000
 -0.118442525121028 0.00000000000000 0.00000000000000
 0.284488653403577 0.00000000000000 0.251292325985019
 0.00000000000000 0.00000000000000 0.00000000000000
 0.00000000000000 -0.118442525121028 -4.719254224722213E-002
 -5.646908486280580E-002 -4.296072472305433E-003 0.00000000000000
 -3.020799522258198E-002 2.107725563578989E-002 -3.650690301828746E-002
 0.00000000000000 -2.107725563578989E-002 6.502127569995218E-003
 -2.722680306720545E-002 0.00000000000000 3.650690301828746E-002
 -2.722680306720545E-002 3.794097543118240E-002 0.00000000000000
 0.00000000000000 0.00000000000000 0.00000000000000
 -9.217263584749672E-003 -3.025098473702027E-002 -2.111215261657478E-002
 -3.656734640404677E-002 0.00000000000000 2.111215261657478E-002
 6.517630251973659E-003 2.728063296619354E-002 0.00000000000000
 3.656734640404677E-002 2.728063296619354E-002 3.801863561290418E-002
 0.00000000000000 0.00000000000000 0.00000000000000
 0.00000000000000 -9.232839587842254E-003 -3.025098473702027E-002
 -2.111215261657478E-002 3.656734640404677E-002 0.00000000000000
 2.111215261657478E-002 6.517630251973659E-003 -2.728063296619354E-002
 0.00000000000000 -3.656734640404677E-002 -2.728063296619354E-002
 3.801863561290418E-002 0.00000000000000 0.00000000000000
 0.00000000000000 0.00000000000000 -9.232839587842254E-003
 -3.020799522258198E-002 2.107725563578989E-002 3.650690301828746E-002
 0.00000000000000 -2.107725563578989E-002 6.502127569995218E-003
 2.722680306720545E-002 0.00000000000000 -3.650690301828746E-002
 2.722680306720545E-002 3.794097543118240E-002 0.00000000000000
 0.00000000000000 0.00000000000000 0.00000000000000
 -9.217263584749672E-003 -1.379551927901697E-002 -1.548966972399018E-002
 1.129981475323569E-002 0.00000000000000 -1.065658377474585E-002
 0.00000000000000 1.635129128922936E-002 0.00000000000000
 0.00000000000000 -3.033907322025496E-003 0.00000000000000
 0.00000000000000 -1.635129128922936E-002 0.00000000000000
 2.339494435475817E-002 0.00000000000000 0.00000000000000
 0.00000000000000 0.00000000000000 -3.033907322025496E-003
 -1.541308089543197E-003 -1.599285087338024E-003 -1.968365020621985E-003
 0.00000000000000 -5.293416503857380E-004 3.180932549242866E-004
 -9.182567699953732E-004 0.00000000000000 -3.180932549242866E-004
 6.727553558029018E-005 -5.694782362335633E-004 0.00000000000000
 9.182567699953732E-004 -5.694782362335633E-004 1.513945832403258E-003
 0.00000000000000 0.00000000000000 0.00000000000000
 0.00000000000000 -1.299973751034921E-004 -7.101413728988135E-005
 0.00000000000000 1.622612333786913E-004 0.00000000000000
 0.00000000000000 -1.853811418229799E-005 0.00000000000000
 0.00000000000000 -1.622612333786913E-004 0.00000000000000
 2.954832152539253E-004 0.00000000000000 0.00000000000000
 0.00000000000000 0.00000000000000 -1.853811418229799E-005
 -7.101413728988167E-005 0.00000000000000 -1.622612333786919E-004
 0.00000000000000 0.00000000000000 -1.853811418229806E-005
 0.00000000000000 0.00000000000000 1.622612333786919E-004
 0.00000000000000 2.954832152539263E-004 0.00000000000000
 0.00000000000000 0.00000000000000 0.00000000000000
 -1.853811418229806E-005 -8.306663415557871E-006 -2.729760831236315E-005
 5.143432463864706E-005 0.00000000000000 1.505071362202485E-005
 -1.013542441280701E-005 -2.063940208609623E-005 0.00000000000000
 1.743398696844419E-005 -9.604784731696282E-007 -3.881730233122554E-006
 0.00000000000000 9.604784731696282E-007 2.316827405646100E-006
 5.008668970024313E-006 0.00000000000000 3.881730233122554E-006
 5.008668970024313E-006 2.131981282060678E-005 0.00000000000000
 0.00000000000000 0.00000000000000 0.00000000000000
 1.077504104945940E-006 1.369315436017640E-006 0.00000000000000
 1.391169127954714E-006 0.00000000000000 0.00000000000000
 1.772945047464518E-007 0.00000000000000 0.00000000000000
 -1.391169127954714E-006 0.00000000000000 4.012899735396797E-007
 0.00000000000000 0.00000000000000 0.00000000000000
 0.00000000000000 1.772945047464518E-007 -0.492878404719519
 0.00000000000000 0.00000000000000 0.00000000000000
 0.00000000000000 -0.182341794719519 0.00000000000000
 0.00000000000000 0.00000000000000 0.00000000000000
 -0.182341794719519 0.00000000000000 0.00000000000000
 0.00000000000000 0.00000000000000 -0.182341794719519
 -0.329315021771252 -0.241694920778958 0.139542286115588
 0.00000000000000 -0.276679320802603 0.00000000000000
 0.283912498435003 0.00000000000000 0.00000000000000
 -0.118174185734172 0.00000000000000 0.00000000000000
 -0.283912498435003 0.00000000000000 0.250695901791690
 0.00000000000000 0.00000000000000 0.00000000000000
 0.00000000000000 -0.118174185734172 -4.715054438452043E-002
 -2.448680654314574E-002 -5.099487643771367E-002 0.00000000000000
 -3.020799522258199E-002 -2.107725563578989E-002 3.650690301828746E-002
 0.00000000000000 2.107725563578989E-002 6.502127569995221E-003
 -2.722680306720546E-002 0.00000000000000 -3.650690301828746E-002
 -2.722680306720546E-002 3.794097543118241E-002 0.00000000000000
 0.00000000000000 0.00000000000000 0.00000000000000
 -9.217263584749674E-003 -3.020799522258202E-002 -2.107725563578992E-002
 -3.650690301828750E-002 0.00000000000000 2.107725563578992E-002
 6.502127569995238E-003 2.722680306720548E-002 0.00000000000000
 3.650690301828750E-002 2.722680306720548E-002 3.794097543118242E-002
 0.00000000000000 0.00000000000000 0.00000000000000
 0.00000000000000 -9.217263584749686E-003 -2.333836283505414E-002
 -1.163866845017227E-002 2.831738572505450E-002 0.00000000000000
 -1.065698921610809E-002 -1.416122801054290E-002 8.175994486412021E-003
 0.00000000000000 1.416122801054290E-002 1.678854908516587E-002
 -1.144458329252943E-002 0.00000000000000 -8.175994486412021E-003
 -1.144458329252943E-002 3.573500965196938E-003 0.00000000000000
 0.00000000000000 0.00000000000000 0.00000000000000
 -3.034036871870659E-003 -1.064374246552135E-002 0.00000000000000
 -1.632899071320682E-002 0.00000000000000 0.00000000000000
 -3.029774466162366E-003 0.00000000000000 0.00000000000000
 1.632899071320682E-002 0.00000000000000 2.335709230650823E-002
 0.00000000000000 0.00000000000000 0.00000000000000
 0.00000000000000 -3.029774466162366E-003 -5.296220227426344E-004
 -6.365312187290302E-004 -7.350034518027869E-004 0.00000000000000
 6.365312187290302E-004 6.594277343927920E-004 9.116365906865143E-004
 0.00000000000000 7.350034518027869E-004 9.116365906865143E-004
 9.225958302523699E-004 0.00000000000000 0.00000000000000
 0.00000000000000 0.00000000000000 -1.300721634435584E-004
 -4.269037520839836E-004 -1.818220986325943E-004 -7.160589822076558E-004
 0.00000000000000 -7.096717600167596E-005 0.00000000000000
 -1.620273150471368E-004 0.00000000000000 0.00000000000000
 -1.851025762842637E-005 0.00000000000000 0.00000000000000
 1.620273150471368E-004 0.00000000000000 2.950960678074052E-004
 0.00000000000000 0.00000000000000 0.00000000000000
 0.00000000000000 -1.851025762842637E-005 -7.096717600167564E-005
 0.00000000000000 1.620273150471363E-004 0.00000000000000
 0.00000000000000 -1.851025762842631E-005 0.00000000000000
 0.00000000000000 -1.620273150471363E-004 0.00000000000000
 2.950960678074041E-004 0.00000000000000 0.00000000000000
 0.00000000000000 0.00000000000000 -1.851025762842631E-005
 1.325656545137738E-005 -5.002644595672275E-006 2.547815513762318E-005
 0.00000000000000 1.364138400143001E-006 0.00000000000000
 -1.383743118505402E-006 0.00000000000000 0.00000000000000
 1.762928809456440E-007 0.00000000000000 0.00000000000000
 1.383743118505402E-006 0.00000000000000 4.029583235653826E-007
 0.00000000000000 0.00000000000000 0.00000000000000
 0.00000000000000 1.762928809456440E-007 -0.496546312250596
 0.00000000000000 0.00000000000000 0.00000000000000
 0.00000000000000 -0.186009702250596 0.00000000000000
 0.00000000000000 0.00000000000000 0.00000000000000
 -0.186009702250596 0.00000000000000 0.00000000000000
 0.00000000000000 0.00000000000000 -0.186009702250596
 -0.277418743749728 0.246638057253122 0.142396647715835
 0.00000000000000 -0.246638057253122 0.159059371962980
 0.160297820632314 0.00000000000000 -0.142396647715835
 0.160297820632314 -2.603635053177966E-002 0.00000000000000
 0.00000000000000 0.00000000000000 0.00000000000000
 -0.118584404746988 -3.023017561038162E-002 4.219050639238192E-002
 0.00000000000000 0.00000000000000 -4.219050639238192E-002
 5.371635458366225E-002 0.00000000000000 0.00000000000000
 0.00000000000000 0.00000000000000 -9.225296653727526E-003
 0.00000000000000 0.00000000000000 0.00000000000000
 0.00000000000000 -9.225296653727526E-003 -1.542249417481009E-003
 -2.505826817715501E-003 -4.010830097342850E-004 0.00000000000000
 -5.298843757600409E-004 3.184268874804903E-004 -9.192198848954249E-004
 0.00000000000000 -3.184268874804903E-004 6.732818783819009E-005
 -5.700482571018620E-004 0.00000000000000 9.192198848954249E-004
 -5.700482571018620E-004 1.515446533429774E-003 0.00000000000000
 0.00000000000000 0.00000000000000 0.00000000000000
 -1.301421837294076E-004 -3.062712537428505E-004 -4.655661163295014E-004
 2.687946752680680E-004 0.00000000000000 -1.633006924020651E-004
 -2.487623074136327E-004 -1.677951249740933E-004 0.00000000000000
 -7.106372931357616E-005 0.00000000000000 1.625082556364765E-004
 0.00000000000000 0.00000000000000 -1.856753123903636E-005
 0.00000000000000 0.00000000000000 -1.625082556364765E-004
 0.00000000000000 2.958920504046366E-004 0.00000000000000
 0.00000000000000 0.00000000000000 0.00000000000000
 -1.856753123903636E-005 -7.106372931357616E-005 0.00000000000000
 -1.625082556364765E-004 0.00000000000000 0.00000000000000
 -1.856753123903636E-005 0.00000000000000 0.00000000000000
 1.625082556364765E-004 0.00000000000000 2.958920504046366E-004
 0.00000000000000 0.00000000000000 0.00000000000000
 0.00000000000000 -1.856753123903636E-005 1.438455886570311E-005
 3.921694663545687E-006 6.792579130002668E-006 0.00000000000000
 -3.921694663545687E-006 9.540817192902059E-006 1.669170401031382E-005
 0.00000000000000 -6.792579130002668E-006 1.669170401031382E-005
 2.881476359156323E-005 0.00000000000000 0.00000000000000
 0.00000000000000 0.00000000000000 -9.613591281850237E-008
 1.438455886570311E-005 3.921694663545687E-006 -6.792579130002668E-006
 0.00000000000000 -3.921694663545687E-006 9.540817192902059E-006
 -1.669170401031382E-005 0.00000000000000 6.792579130002668E-006
 -1.669170401031382E-005 2.881476359156323E-005 0.00000000000000
 0.00000000000000 0.00000000000000 0.00000000000000
 -9.613591281850237E-008 1.944678708283248E-005 -9.797692649444807E-006
 1.069721796072301E-005 0.00000000000000 1.751757978580900E-005
 -9.732986541657417E-007 -3.933542413777132E-006 0.00000000000000
 9.732986541657417E-007 2.330023252657418E-006 5.020778844603063E-006
 0.00000000000000 3.933542413777132E-006 5.020778844603063E-006
 2.137895376228770E-005 0.00000000000000 0.00000000000000
 0.00000000000000 0.00000000000000 1.087703537176436E-006
 -0.494662389745914 0.00000000000000 0.00000000000000
 0.00000000000000 0.00000000000000 -0.184125779745914
 0.00000000000000 0.00000000000000 0.00000000000000
 0.00000000000000 -0.184125779745914 0.00000000000000
 0.00000000000000 0.00000000000000 0.00000000000000
 -0.184125779745914 -0.276921504870641 0.246125116195159
 -0.142100500852115 0.00000000000000 -0.246125116195159
 0.158668488618146 -0.159912878262672 0.00000000000000
 0.142100500852115 -0.159912878262672 -2.598274133300374E-002
 0.00000000000000 0.00000000000000 0.00000000000000
 0.00000000000000 -0.118308548813012 -4.719254224722213E-002
 -5.646908486280580E-002 4.296072472305422E-003 0.00000000000000
 -1.379551927901695E-002 -1.548966972399015E-002 -1.129981475323568E-002
 0.00000000000000 -1.541308089543202E-003 -1.599285087338029E-003
 1.968365020621991E-003 0.00000000000000 -5.293416503857380E-004
 3.180932549242866E-004 9.182567699953732E-004 0.00000000000000
 -3.180932549242866E-004 6.727553558029018E-005 5.694782362335632E-004
 0.00000000000000 -9.182567699953732E-004 5.694782362335632E-004
 1.513945832403258E-003 0.00000000000000 0.00000000000000
 0.00000000000000 0.00000000000000 -1.299973751034921E-004
 -7.101413728988167E-005 0.00000000000000 1.622612333786919E-004
 0.00000000000000 0.00000000000000 -1.853811418229806E-005
 0.00000000000000 0.00000000000000 -1.622612333786919E-004
 0.00000000000000 2.954832152539263E-004 0.00000000000000
 0.00000000000000 0.00000000000000 0.00000000000000
 -1.853811418229806E-005 -7.101413728988167E-005 0.00000000000000
 -1.622612333786919E-004 0.00000000000000 0.00000000000000
 -1.853811418229806E-005 0.00000000000000 0.00000000000000
 1.622612333786919E-004 0.00000000000000 2.954832152539263E-004
 0.00000000000000 0.00000000000000 0.00000000000000
 0.00000000000000 -1.853811418229806E-005 -8.306663415557867E-006
 -2.729760831236315E-005 -5.143432463864707E-005 0.00000000000000
 1.505071362202480E-005 -1.013542441280705E-005 2.063940208609630E-005
 0.00000000000000 1.743398696844418E-005 -9.604784731696178E-007
 3.881730233122511E-006 0.00000000000000 9.604784731696178E-007
 2.316827405646100E-006 -5.008668970024328E-006 0.00000000000000
 -3.881730233122511E-006 -5.008668970024328E-006 2.131981282060683E-005
 0.00000000000000 0.00000000000000 0.00000000000000
 0.00000000000000 1.077504104945936E-006 -0.492878404719519
 0.00000000000000 0.00000000000000 0.00000000000000
 0.00000000000000 -0.182341794719519 0.00000000000000
 0.00000000000000 0.00000000000000 0.00000000000000
 -0.182341794719519 0.00000000000000 0.00000000000000
 0.00000000000000 0.00000000000000 -0.182341794719519
 -0.329315021771251 -0.241694920778957 -0.139542286115588
 0.00000000000000 -4.715054438452052E-002 -2.448680654314579E-002
 5.099487643771376E-002 0.00000000000000 -2.333836283505411E-002
 -1.163866845017226E-002 -2.831738572505447E-002 0.00000000000000
 -4.269037520839842E-004 -1.818220986325945E-004 7.160589822076568E-004
 0.00000000000000 -7.096717600167595E-005 0.00000000000000
 -1.620273150471368E-004 0.00000000000000 0.00000000000000
 -1.851025762842637E-005 0.00000000000000 0.00000000000000
 1.620273150471368E-004 0.00000000000000 2.950960678074051E-004
 0.00000000000000 0.00000000000000 0.00000000000000
 0.00000000000000 -1.851025762842637E-005 -7.096717600167595E-005
 0.00000000000000 1.620273150471368E-004 0.00000000000000
 0.00000000000000 -1.851025762842637E-005 0.00000000000000
 0.00000000000000 -1.620273150471368E-004 0.00000000000000
 2.950960678074051E-004 0.00000000000000 0.00000000000000
 0.00000000000000 0.00000000000000 -1.851025762842637E-005
 1.325656545137742E-005 -5.002644595672257E-006 -2.547815513762309E-005
 0.00000000000000 -0.243293620831696 -7.783291394109587E-002
 -1.714227845424696E-002 -9.203417733577284E-005 -9.203417733577284E-005
 -0.243293620831696 -9.203417733577284E-005 -9.203417733577284E-005
 -0.243293647175050 -7.783291709312952E-002 -1.714227893086824E-002
 -9.203417939750941E-005 -9.203417939750909E-005 -0.243293647175050
 -9.203417939750909E-005 -9.203417939750909E-005
Density kicked along y!
Starting dynamics
Step        0  elapsed loop time:   0.000900  average time per loop   0.000900
Step     2000  elapsed loop time:   2.560000  average time per loop   0.001279
Step     4000  elapsed loop time:   5.069700  average time per loop   0.001267
Step     6000  elapsed loop time:   7.613500  average time per loop   0.001269
Step     8000  elapsed loop time:   9.817000  average time per loop   0.001227
Step    10000  elapsed loop time:  11.399000  average time per loop   0.001140
Step    12000  elapsed loop time:  13.035300  average time per loop   0.001086
Step    14000  elapsed loop time:  14.688100  average time per loop   0.001049
Step    16000  elapsed loop time:  16.316299  average time per loop   0.001020
Step    18000  elapsed loop time:  17.960300  average time per loop   0.000998
Step    20000  elapsed loop time:  19.576500  average time per loop   0.000979
Dynamics finished OK!
 
--------------------------------------------------------------------------------
DFTB+ running times                          cpu [s]             wall clock [s]
--------------------------------------------------------------------------------
Pre-SCC initialisation                 +     0.02  (  0.0%)      0.01  (  0.0%)
SCC                                    +     0.20  (  0.3%)      0.06  (  0.3%)
Post-geometry optimisation             +    71.05  ( 99.7%)     19.59  ( 99.7%)
Electron dynamics initialisation       +     0.05  (  0.1%)      0.01  (  0.1%)
Electron dynamics loop                 +    71.00  ( 99.6%)     19.58  ( 99.6%)
--------------------------------------------------------------------------------
Missing                                +    71.05  ( 99.7%)     19.59  ( 99.7%)
Total                                  =    71.28  (100.0%)     19.65  (100.0%)
--------------------------------------------------------------------------------
